ITEM: TIMESTEP
0
ITEM: NUMBER OF ATOMS
16
ITEM: BOX BOUNDS ff ff ff
0.0000000000000000e+00 5.7329999999999997e+00
0.0000000000000000e+00 5.7329999999999997e+00
0.0000000000000000e+00 5.7329999999999997e+00
ITEM: ATOMS type x y z c_outsp[5] c_outsp[6] c_outsp[7]
1 0 0 0 2.97147 -17.1474 7.13777
1 1.43325 1.43325 1.43325 55.1122 -67.8112 -1.39269
1 2.8665 0 0 9.10445 -7.76436 -20.1829
1 4.29975 1.43325 1.43325 2.93237 -19.2337 -24.6122
1 0 2.8665 0 -30.8353 -1.56132 -18.0306
1 1.43325 4.29975 1.43325 -68.1212 -36.4192 -38.6041
1 2.8665 2.8665 0 -28.0468 -31.023 34.0759
1 4.29975 4.29975 1.43325 -15.4024 -67.934 -3.63627
1 0 0 2.8665 4.63432 45.3706 -22.7232
1 1.43325 1.43325 4.29975 -18.8482 -31.3756 -9.88727
1 2.8665 0 2.8665 27.0712 9.23924 47.6943
1 4.29975 1.43325 4.29975 26.6107 -37.5144 4.14681
1 0 2.8665 2.8665 -23.1345 -45.8465 24.0369
1 1.43325 4.29975 4.29975 -31.9024 -18.3927 12.5144
1 2.8665 2.8665 2.8665 -19.8004 -13.2033 49.7359
1 4.29975 4.29975 4.29975 -31.9875 -9.40834 0.900275
ITEM: TIMESTEP
100
ITEM: NUMBER OF ATOMS
16
ITEM: BOX BOUNDS ff ff ff
0.0000000000000000e+00 5.7329999999999997e+00
0.0000000000000000e+00 5.7329999999999997e+00
0.0000000000000000e+00 5.7329999999999997e+00
ITEM: ATOMS type x y z c_outsp[5] c_outsp[6] c_outsp[7]
1 0 0 0 8.9338 -13.5328 0.147996
1 1.43325 1.43325 1.43325 54.6384 -78.6756 -1.51512
1 2.8665 0 0 20.4604 2.13668 -22.1846
1 4.29975 1.43325 1.43325 32.1593 -23.4735 -20.581
1 0 2.8665 0 -27.3407 17.5126 -21.4644
1 1.43325 4.29975 1.43325 -36.646 -54.164 -43.4885
1 2.8665 2.8665 0 -26.6013 -20.9048 22.944
1 4.29975 4.29975 1.43325 -7.57962 -73.0438 11.2358
1 0 0 2.8665 19.3421 58.5543 -31.4274
1 1.43325 1.43325 4.29975 -9.84943 -33.4938 -24.7799
1 2.8665 0 2.8665 25.4714 -4.19547 49.7913
1 4.29975 1.43325 4.29975 32.8872 -31.7778 11.9144
1 0 2.8665 2.8665 -24.2236 -28.4311 26.3518
1 1.43325 4.29975 4.29975 -29.9688 -24.1709 12.4158
1 2.8665 2.8665 2.8665 -26.5486 4.35993 47.9395
1 4.29975 4.29975 4.29975 -19.1854 -22.5225 4.20252
ITEM: TIMESTEP
200
ITEM: NUMBER OF ATOMS
16
ITEM: BOX BOUNDS ff ff ff
0.0000000000000000e+00 5.7329999999999997e+00
0.0000000000000000e+00 5.7329999999999997e+00
0.0000000000000000e+00 5.7329999999999997e+00
ITEM: ATOMS type x y z c_outsp[5] c_outsp[6] c_outsp[7]
1 0 0 0 13.4867 -9.30823 3.87419
1 1.43325 1.43325 1.43325 49.9299 -81.2121 -3.88406
1 2.8665 0 0 27.6913 10.5458 -14.0076
1 4.29975 1.43325 1.43325 54.1739 -19.5278 0.742868
1 0 2.8665 0 -18.2136 31.7898 -22.8994
1 1.43325 4.29975 1.43325 -1.10977 -60.248 -29.1064
1 2.8665 2.8665 0 -8.9709 -13.7075 8.50906
1 4.29975 4.29975 1.43325 1.7998 -70.7849 12.4693
1 0 0 2.8665 29.7372 66.5424 -15.556
1 1.43325 1.43325 4.29975 -9.73508 -28.9018 -18.5067
1 2.8665 0 2.8665 24.1109 -19.932 52.9143
1 4.29975 1.43325 4.29975 32.969 -22.8944 22.8786
1 0 2.8665 2.8665 -21.3137 -11.742 26.5149
1 1.43325 4.29975 4.29975 -22.0017 -28.0521 10.7544
1 2.8665 2.8665 2.8665 -26.3983 8.03385 43.3408
1 4.29975 4.29975 4.29975 -3.98061 -28.6597 11.47
ITEM: TIMESTEP
300
ITEM: NUMBER OF ATOMS
16
ITEM: BOX BOUNDS ff ff ff
0.0000000000000000e+00 5.7329999999999997e+00
0.0000000000000000e+00 5.7329999999999997e+00
0.0000000000000000e+00 5.7329999999999997e+00
ITEM: ATOMS type x y z c_outsp[5] c_outsp[6] c_outsp[7]
1 0 0 0 11.1514 -10.5752 15.8281
1 1.43325 1.43325 1.43325 43.8811 -73.2886 -7.38838
1 2.8665 0 0 26.2219 15.6482 -6.75729
1 4.29975 1.43325 1.43325 60.8791 -14.5309 21.3825
1 0 2.8665 0 -12.1843 34.3076 -18.5455
1 1.43325 4.29975 1.43325 22.9239 -61.1269 -11.0455
1 2.8665 2.8665 0 16.1158 -7.50602 0.00508805
1 4.29975 4.29975 1.43325 15.6617 -62.2415 -0.839245
1 0 0 2.8665 22.1182 67.587 11.1976
1 1.43325 1.43325 4.29975 -19.0146 -27.0364 1.96892
1 2.8665 0 2.8665 22.8866 -29.9175 51.8907
1 4.29975 1.43325 4.29975 28.0901 -11.3148 28.7765
1 0 2.8665 2.8665 -20.3524 -0.935217 29.5191
1 1.43325 4.29975 4.29975 -11.296 -28.6513 8.22514
1 2.8665 2.8665 2.8665 -23.2173 1.03525 37.8633
1 4.29975 4.29975 4.29975 10.5339 -27.2386 19.7103
ITEM: TIMESTEP
400
ITEM: NUMBER OF ATOMS
16
ITEM: BOX BOUNDS ff ff ff
0.0000000000000000e+00 5.7329999999999997e+00
0.0000000000000000e+00 5.7329999999999997e+00
0.0000000000000000e+00 5.7329999999999997e+00
ITEM: ATOMS type x y z c_outsp[5] c_outsp[6] c_outsp[7]
1 0 0 0 4.29648 -19.2675 26.4487
1 1.43325 1.43325 1.43325 37.5142 -60.5657 -9.6375
1 2.8665 0 0 16.7667 22.5312 -7.33516
1 4.29975 1.43325 1.43325 53.2877 -14.8999 31.7854
1 0 2.8665 0 -11.6009 32.1714 -14.5341
1 1.43325 4.29975 1.43325 33.7122 -60.8532 3.74407
1 2.8665 2.8665 0 35.6484 2.90118 0.31786
1 4.29975 4.29975 1.43325 30.8232 -44.3642 -16.5056
1 0 0 2.8665 -2.18051 63.9827 30.0206
1 1.43325 1.43325 4.29975 -28.3811 -38.9314 24.4695
1 2.8665 0 2.8665 20.0757 -25.9418 46.7255
1 4.29975 1.43325 4.29975 18.8229 1.41693 27.6069
1 0 2.8665 2.8665 -24.642 6.42954 31.2191
1 1.43325 4.29975 4.29975 -1.41905 -25.3146 7.24245
1 2.8665 2.8665 2.8665 -19.9741 -4.12097 29.8419
1 4.29975 4.29975 4.29975 21.263 -23.071 28.3496
ITEM: TIMESTEP
500
ITEM: NUMBER OF ATOMS
16
ITEM: BOX BOUNDS ff ff ff
0.0000000000000000e+00 5.7329999999999997e+00
0.0000000000000000e+00 5.7329999999999997e+00
0.0000000000000000e+00 5.7329999999999997e+00
ITEM: ATOMS type x y z c_outsp[5] c_outsp[6] c_outsp[7]
1 0 0 0 -1.04189 -28.7136 32.1113
1 1.43325 1.43325 1.43325 31.274 -45.5229 -5.07336
1 2.8665 0 0 2.90622 32.9965 -11.2446
1 4.29975 1.43325 1.43325 39.0277 -16.3793 31.3384
1 0 2.8665 0 -14.5412 33.6406 -10.8611
1 1.43325 4.29975 1.43325 38.3938 -58.6513 13.7105
1 2.8665 2.8665 0 44.4904 12.2608 8.77448
1 4.29975 4.29975 1.43325 43.1363 -17.9422 -26.6176
1 0 0 2.8665 -34.2828 54.8587 33.1804
1 1.43325 1.43325 4.29975 -26.68 -55.1935 44.6152
1 2.8665 0 2.8665 13.4769 -14.6701 40.0183
1 4.29975 1.43325 4.29975 7.79718 9.74308 20.7889
1 0 2.8665 2.8665 -32.3461 11.0672 27.9988
1 1.43325 4.29975 4.29975 5.21247 -20.8839 8.32583
1 2.8665 2.8665 2.8665 -18.1265 -7.62401 19.0001
1 4.29975 4.29975 4.29975 28.4065 -21.2746 34.3008
ITEM: TIMESTEP
600
ITEM: NUMBER OF ATOMS
16
ITEM: BOX BOUNDS ff ff ff
0.0000000000000000e+00 5.7329999999999997e+00
0.0000000000000000e+00 5.7329999999999997e+00
0.0000000000000000e+00 5.7329999999999997e+00
ITEM: ATOMS type x y z c_outsp[5] c_outsp[6] c_outsp[7]
1 0 0 0 -3.2976 -31.432 35.4451
1 1.43325 1.43325 1.43325 23.8636 -27.0465 10.4354
1 2.8665 0 0 -12.7595 41.6477 -13.2186
1 4.29975 1.43325 1.43325 22.5366 -18.3097 28.0937
1 0 2.8665 0 -22.3968 38.4783 -3.24753
1 1.43325 4.29975 1.43325 41.3466 -52.7101 22.3095
1 2.8665 2.8665 0 43.3737 13.5982 18.7027
1 4.29975 4.29975 1.43325 47.1019 9.20675 -25.73
1 0 0 2.8665 -60.538 33.219 22.3889
1 1.43325 1.43325 4.29975 -14.8219 -58.533 63.5122
1 2.8665 0 2.8665 5.05616 -10.9244 33.0919
1 4.29975 1.43325 4.29975 -0.514923 7.93762 11.5835
1 0 2.8665 2.8665 -38.5032 7.6838 21.2995
1 1.43325 4.29975 4.29975 9.30813 -19.2646 12.229
1 2.8665 2.8665 2.8665 -15.4216 -19.0294 3.62331
1 4.29975 4.29975 4.29975 32.7845 -24.2591 34.9975
ITEM: TIMESTEP
700
ITEM: NUMBER OF ATOMS
16
ITEM: BOX BOUNDS ff ff ff
0.0000000000000000e+00 5.7329999999999997e+00
0.0000000000000000e+00 5.7329999999999997e+00
0.0000000000000000e+00 5.7329999999999997e+00
ITEM: ATOMS type x y z c_outsp[5] c_outsp[6] c_outsp[7]
1 0 0 0 -4.35729 -27.9321 38.4526
1 1.43325 1.43325 1.43325 11.2462 -9.78105 32.2543
1 2.8665 0 0 -26.8396 41.1433 -12.7953
1 4.29975 1.43325 1.43325 4.23943 -24.7123 30.2824
1 0 2.8665 0 -36.6096 37.9173 7.52868
1 1.43325 4.29975 1.43325 41.5949 -43.2488 32.302
1 2.8665 2.8665 0 33.9238 6.97039 24.7718
1 4.29975 4.29975 1.43325 39.4618 29.5681 -12.4384
1 0 0 2.8665 -68.8014 1.6171 6.28492
1 1.43325 1.43325 4.29975 -9.57002 -51.9866 79.1014
1 2.8665 0 2.8665 1.76877 -19.5068 31.1333
1 4.29975 1.43325 4.29975 -2.58509 -3.06104 5.09893
1 0 2.8665 2.8665 -36.8296 -7.08172 14.8242
1 1.43325 4.29975 4.29975 11.9099 -21.2298 21.6015
1 2.8665 2.8665 2.8665 -5.32676 -38.3106 -13.6588
1 4.29975 4.29975 4.29975 32.7072 -29.6888 32.1512
ITEM: TIMESTEP
800
ITEM: NUMBER OF ATOMS
16
ITEM: BOX BOUNDS ff ff ff
0.0000000000000000e+00 5.7329999999999997e+00
0.0000000000000000e+00 5.7329999999999997e+00
0.0000000000000000e+00 5.7329999999999997e+00
ITEM: ATOMS type x y z c_outsp[5] c_outsp[6] c_outsp[7]
1 0 0 0 -3.63243 -23.0455 41.2184
1 1.43325 1.43325 1.43325 -8.58228 -1.96847 46.8107
1 2.8665 0 0 -34.459 29.5133 -13.1678
1 4.29975 1.43325 1.43325 -14.8893 -36.7916 34.3841
1 0 2.8665 0 -53.092 25.4714 14.9098
1 1.43325 4.29975 1.43325 34.0148 -32.6889 39.8279
1 2.8665 2.8665 0 18.1387 -1.74519 26.6739
1 4.29975 4.29975 1.43325 19.1027 36.8297 2.71509
1 0 0 2.8665 -53.2414 -28.4153 -4.1839
1 1.43325 1.43325 4.29975 -18.2262 -48.842 83.4045
1 2.8665 0 2.8665 7.02009 -31.2237 37.2314
1 4.29975 1.43325 4.29975 0.276842 -17.3161 2.56359
1 0 2.8665 2.8665 -22.4134 -25.2567 11.131
1 1.43325 4.29975 4.29975 9.61519 -25.5989 34.4299
1 2.8665 2.8665 2.8665 15.9084 -54.8483 -24.3112
1 4.29975 4.29975 4.29975 24.8111 -33.9294 28.6953
ITEM: TIMESTEP
900
ITEM: NUMBER OF ATOMS
16
ITEM: BOX BOUNDS ff ff ff
0.0000000000000000e+00 5.7329999999999997e+00
0.0000000000000000e+00 5.7329999999999997e+00
0.0000000000000000e+00 5.7329999999999997e+00
ITEM: ATOMS type x y z c_outsp[5] c_outsp[6] c_outsp[7]
1 0 0 0 -2.10401 -16.6121 44.909
1 1.43325 1.43325 1.43325 -28.6798 -5.05402 41.8031
1 2.8665 0 0 -31.1138 14.306 -16.0126
1 4.29975 1.43325 1.43325 -30.3497 -51.2616 28.6151
1 0 2.8665 0 -62.8486 6.62268 14.5169
1 1.43325 4.29975 1.43325 18.8373 -26.9333 35.7322
1 2.8665 2.8665 0 1.43654 -8.99404 21.7307
1 4.29975 4.29975 1.43325 -7.01907 30.5708 4.87928
1 0 0 2.8665 -24.2486 -43.6821 -0.571933
1 1.43325 1.43325 4.29975 -30.3272 -55.3248 70.925
1 2.8665 0 2.8665 12.0992 -31.2338 50.1054
1 4.29975 1.43325 4.29975 5.43759 -27.8701 -0.341495
1 0 2.8665 2.8665 -1.27914 -29.5483 15.433
1 1.43325 4.29975 4.29975 -0.359643 -31.3128 40.994
1 2.8665 2.8665 2.8665 41.8857 -58.7883 -16.0841
1 4.29975 4.29975 4.29975 10.29 -38.3087 21.686
ITEM: TIMESTEP
1000
ITEM: NUMBER OF ATOMS
16
ITEM: BOX BOUNDS ff ff ff
0.0000000000000000e+00 5.7329999999999997e+00
0.0000000000000000e+00 5.7329999999999997e+00
0.0000000000000000e+00 5.7329999999999997e+00
ITEM: ATOMS type x y z c_outsp[5] c_outsp[6] c_outsp[7]
1 0 0 0 -6.49273 -7.86229 47.4414
1 1.43325 1.43325 1.43325 -32.0496 -13.8766 19.5315
1 2.8665 0 0 -18.1657 4.68738 -17.5307
1 4.29975 1.43325 1.43325 -32.631 -62.3673 9.21687
1 0 2.8665 0 -62.6502 -7.6012 7.88304
1 1.43325 4.29975 1.43325 9.90792 -27.9487 17.2643
1 2.8665 2.8665 0 -7.92477 -14.914 9.13117
1 4.29975 4.29975 1.43325 -21.2093 18.3237 -10.7098
1 0 0 2.8665 -3.48117 -40.0273 15.7108
1 1.43325 1.43325 4.29975 -34.1144 -62.8599 49.6927
1 2.8665 0 2.8665 6.56602 -19.8141 61.583
1 4.29975 1.43325 4.29975 14.8883 -30.8665 -5.10376
1 0 2.8665 2.8665 8.39806 -14.3073 25.3917
1 1.43325 4.29975 4.29975 -10.475 -36.0031 35.8045
1 2.8665 2.8665 2.8665 57.4513 -50.8603 9.53202
1 4.29975 4.29975 4.29975 0.0475515 -45.2922 7.058
ITEM: TIMESTEP
1100
ITEM: NUMBER OF ATOMS
16
ITEM: BOX BOUNDS ff ff ff
0.0000000000000000e+00 5.7329999999999997e+00
0.0000000000000000e+00 5.7329999999999997e+00
0.0000000000000000e+00 5.7329999999999997e+00
ITEM: ATOMS type x y z c_outsp[5] c_outsp[6] c_outsp[7]
1 0 0 0 -16.9974 -2.9206 43.6904
1 1.43325 1.43325 1.43325 -10.5598 -19.5596 -1.85577
1 2.8665 0 0 -1.98225 0.627948 -12.7564
1 4.29975 1.43325 1.43325 -19.6365 -64.3458 -13.7426
1 0 2.8665 0 -54.705 -12.6176 -1.47245
1 1.43325 4.29975 1.43325 18.3227 -28.1306 -3.75186
1 2.8665 2.8665 0 -7.8417 -18.391 -2.79235
1 4.29975 4.29975 1.43325 -15.0416 11.2836 -28.8544
1 0 0 2.8665 1.03111 -28.6623 30.9234
1 1.43325 1.43325 4.29975 -20.2794 -61.8574 27.6863
1 2.8665 0 2.8665 -8.54779 -11.9013 62.1931
1 4.29975 1.43325 4.29975 28.0945 -24.6516 -6.8206
1 0 2.8665 2.8665 1.58619 8.07525 28.4234
1 1.43325 4.29975 4.29975 -10.0177 -33.9021 25.5938
1 2.8665 2.8665 2.8665 48.4804 -38.2876 34.888
1 4.29975 4.29975 4.29975 0.493985 -49.9401 -10.4858
ITEM: TIMESTEP
1200
ITEM: NUMBER OF ATOMS
16
ITEM: BOX BOUNDS ff ff ff
0.0000000000000000e+00 5.7329999999999997e+00
0.0000000000000000e+00 5.7329999999999997e+00
0.0000000000000000e+00 5.7329999999999997e+00
ITEM: ATOMS type x y z c_outsp[5] c_outsp[6] c_outsp[7]
1 0 0 0 -25.9373 -7.78181 33.676
1 1.43325 1.43325 1.43325 25.2446 -21.3991 -5.64981
1 2.8665 0 0 10.2085 -4.6 -1.14107
1 4.29975 1.43325 1.43325 -0.767941 -58.61 -29.2207
1 0 2.8665 0 -40.7649 -9.82022 -8.7297
1 1.43325 4.29975 1.43325 37.6716 -23.4051 -16.9832
1 2.8665 2.8665 0 -5.92931 -19.4528 -6.17685
1 4.29975 4.29975 1.43325 -0.20106 12.296 -34.5257
1 0 0 2.8665 -1.00543 -22.3197 37.7967
1 1.43325 1.43325 4.29975 0.528896 -54.2246 11.3978
1 2.8665 0 2.8665 -25.3433 -18.2996 55.6032
1 4.29975 1.43325 4.29975 37.9383 -14.3881 -0.668094
1 0 2.8665 2.8665 -8.56535 22.5108 24.6626
1 1.43325 4.29975 4.29975 -0.229595 -23.4319 19.1258
1 2.8665 2.8665 2.8665 23.2299 -26.9044 49.7641
1 4.29975 4.29975 4.29975 5.74014 -47.7121 -22.7382
ITEM: TIMESTEP
1300
ITEM: NUMBER OF ATOMS
16
ITEM: BOX BOUNDS ff ff ff
0.0000000000000000e+00 5.7329999999999997e+00
0.0000000000000000e+00 5.7329999999999997e+00
0.0000000000000000e+00 5.7329999999999997e+00
ITEM: ATOMS type x y z c_outsp[5] c_outsp[6] c_outsp[7]
1 0 0 0 -29.1226 -21.1894 17.5287
1 1.43325 1.43325 1.43325 57.2861 -22.5972 7.41604
1 2.8665 0 0 13.4998 -14.3156 10.0861
1 4.29975 1.43325 1.43325 15.4243 -49.7401 -37.5803
1 0 2.8665 0 -23.3653 -3.24082 -11.0501
1 1.43325 4.29975 1.43325 57.7803 -17.3364 -25.8333
1 2.8665 2.8665 0 -7.36532 -20.7996 -2.48055
1 4.29975 4.29975 1.43325 11.4641 15.8611 -27.7924
1 0 0 2.8665 -3.75362 -22.8077 36.6141
1 1.43325 1.43325 4.29975 20.9958 -44.0332 0.725898
1 2.8665 0 2.8665 -38.6968 -38.1213 43.1779
1 4.29975 1.43325 4.29975 38.1315 -5.6141 12.133
1 0 2.8665 2.8665 -12.3174 25.3243 21.205
1 1.43325 4.29975 4.29975 11.2932 -8.49632 18.6493
1 2.8665 2.8665 2.8665 -3.02401 -17.4408 51.2626
1 4.29975 4.29975 4.29975 11.8543 -39.9148 -27.5827
ITEM: TIMESTEP
1400
ITEM: NUMBER OF ATOMS
16
ITEM: BOX BOUNDS ff ff ff
0.0000000000000000e+00 5.7329999999999997e+00
0.0000000000000000e+00 5.7329999999999997e+00
0.0000000000000000e+00 5.7329999999999997e+00
ITEM: ATOMS type x y z c_outsp[5] c_outsp[6] c_outsp[7]
1 0 0 0 -24.3352 -32.114 -4.45935
1 1.43325 1.43325 1.43325 71.5215 -26.2375 27.6453
1 2.8665 0 0 8.53564 -22.484 11.6554
1 4.29975 1.43325 1.43325 25.4316 -37.825 -41.8284
1 0 2.8665 0 -3.56697 1.84566 -7.54625
1 1.43325 4.29975 1.43325 76.0433 -8.72599 -34.2705
1 2.8665 2.8665 0 -7.59143 -24.6489 2.79222
1 4.29975 4.29975 1.43325 18.8263 16.4931 -14.4819
1 0 0 2.8665 -6.87235 -23.4672 27.4442
1 1.43325 1.43325 4.29975 38.5135 -31.2944 -8.44759
1 2.8665 0 2.8665 -43.6962 -59.3882 21.3137
1 4.29975 1.43325 4.29975 27.8812 0.195749 25.2632
1 0 2.8665 2.8665 -4.22004 19.6752 20.8036
1 1.43325 4.29975 4.29975 21.1256 2.92481 23.2375
1 2.8665 2.8665 2.8665 -19.1604 -12.2938 45.9964
1 4.29975 4.29975 4.29975 18.6898 -29.373 -28.202
ITEM: TIMESTEP
1500
ITEM: NUMBER OF ATOMS
16
ITEM: BOX BOUNDS ff ff ff
0.0000000000000000e+00 5.7329999999999997e+00
0.0000000000000000e+00 5.7329999999999997e+00
0.0000000000000000e+00 5.7329999999999997e+00
ITEM: ATOMS type x y z c_outsp[5] c_outsp[6] c_outsp[7]
1 0 0 0 -12.5003 -29.5593 -22.6636
1 1.43325 1.43325 1.43325 67.9635 -32.9956 46.8682
1 2.8665 0 0 1.88818 -19.1824 4.51613
1 4.29975 1.43325 1.43325 31.6619 -19.0576 -40.5663
1 0 2.8665 0 17.1088 -1.22561 0.202084
1 1.43325 4.29975 1.43325 93.2093 10.2884 -38.3976
1 2.8665 2.8665 0 -0.877627 -33.2559 5.64026
1 4.29975 4.29975 1.43325 25.2322 11.2865 -0.651145
1 0 0 2.8665 -8.53285 -16.681 15.2451
1 1.43325 1.43325 4.29975 50.6473 -13.364 -13.8897
1 2.8665 0 2.8665 -38.6056 -67.1958 -2.98436
1 4.29975 1.43325 4.29975 13.1401 5.42406 31.2656
1 0 2.8665 2.8665 14.1944 6.33914 24.7103
1 1.43325 4.29975 4.29975 28.9938 3.93018 29.8361
1 2.8665 2.8665 2.8665 -20.7703 -15.5346 39.9937
1 4.29975 4.29975 4.29975 24.643 -17.8348 -26.475
ITEM: TIMESTEP
1600
ITEM: NUMBER OF ATOMS
16
ITEM: BOX BOUNDS ff ff ff
0.0000000000000000e+00 5.7329999999999997e+00
0.0000000000000000e+00 5.7329999999999997e+00
0.0000000000000000e+00 5.7329999999999997e+00
ITEM: ATOMS type x y z c_outsp[5] c_outsp[6] c_outsp[7]
1 0 0 0 -1.01318 -15.8696 -24.6552
1 1.43325 1.43325 1.43325 59.5708 -40.057 58.5778
1 2.8665 0 0 -1.14514 -4.19523 1.20574
1 4.29975 1.43325 1.43325 37.9425 5.319 -29.4776
1 0 2.8665 0 32.02 -10.2516 0.651623
1 1.43325 4.29975 1.43325 105.064 32.2381 -20.9982
1 2.8665 2.8665 0 8.75612 -43.6868 -3.10618
1 4.29975 4.29975 1.43325 32.286 2.27844 6.6196
1 0 0 2.8665 -8.89726 -2.85467 10.7845
1 1.43325 1.43325 4.29975 54.446 7.67101 -6.45809
1 2.8665 0 2.8665 -29.285 -61.8627 -14.273
1 4.29975 1.43325 4.29975 2.77455 11.2496 31.559
1 0 2.8665 2.8665 30.5882 -12.8093 24.3025
1 1.43325 4.29975 4.29975 33.4494 -3.89676 31.6456
1 2.8665 2.8665 2.8665 -14.9058 -25.8325 28.7848
1 4.29975 4.29975 4.29975 27.7167 -6.77148 -21.4282
ITEM: TIMESTEP
1700
ITEM: NUMBER OF ATOMS
16
ITEM: BOX BOUNDS ff ff ff
0.0000000000000000e+00 5.7329999999999997e+00
0.0000000000000000e+00 5.7329999999999997e+00
0.0000000000000000e+00 5.7329999999999997e+00
ITEM: ATOMS type x y z c_outsp[5] c_outsp[6] c_outsp[7]
1 0 0 0 3.15921 -3.72363 -10.5509
1 1.43325 1.43325 1.43325 56.4552 -52.5354 63.278
1 2.8665 0 0 -4.39873 8.75053 8.94845
1 4.29975 1.43325 1.43325 41.3313 23.5872 -8.11889
1 0 2.8665 0 34.1036 -5.2659 -9.8119
1 1.43325 4.29975 1.43325 105.166 41.8169 12.9433
1 2.8665 2.8665 0 13.4527 -35.5152 -23.7534
1 4.29975 4.29975 1.43325 38.4129 -2.02541 5.65195
1 0 0 2.8665 -12.3773 6.67376 17.4363
1 1.43325 1.43325 4.29975 48.2857 18.7241 14.3704
1 2.8665 0 2.8665 -20.5164 -58.4056 -9.80992
1 4.29975 1.43325 4.29975 -0.842608 12.5524 30.6671
1 0 2.8665 2.8665 36.1825 -20.6721 12.5254
1 1.43325 4.29975 4.29975 34.1416 -9.79825 25.1757
1 2.8665 2.8665 2.8665 -12.006 -26.8204 9.381
1 4.29975 4.29975 4.29975 27.8172 0.464333 -13.6679
ITEM: TIMESTEP
1800
ITEM: NUMBER OF ATOMS
16
ITEM: BOX BOUNDS ff ff ff
0.0000000000000000e+00 5.7329999999999997e+00
0.0000000000000000e+00 5.7329999999999997e+00
0.0000000000000000e+00 5.7329999999999997e+00
ITEM: ATOMS type x y z c_outsp[5] c_outsp[6] c_outsp[7]
1 0 0 0 -0.697314 -2.61474 7.48959
1 1.43325 1.43325 1.43325 62.3151 -67.4674 60.4961
1 2.8665 0 0 -12.7396 6.39792 17.2761
1 4.29975 1.43325 1.43325 38.4328 27.3607 9.36344
1 0 2.8665 0 20.1923 15.0327 -10.3702
1 1.43325 4.29975 1.43325 96.3826 27.9373 36.9995
1 2.8665 2.8665 0 6.71461 -5.67891 -32.9493
1 4.29975 4.29975 1.43325 40.9668 1.52429 2.76502
1 0 0 2.8665 -19.7863 2.80014 24.4725
1 1.43325 1.43325 4.29975 38.2761 13.2494 32.2862
1 2.8665 0 2.8665 -12.0126 -65.4107 -3.77921
1 4.29975 1.43325 4.29975 0.273238 8.08422 24.3206
1 0 2.8665 2.8665 31.0741 -11.9385 6.30581
1 1.43325 4.29975 4.29975 33.4401 -6.77905 18.6538
1 2.8665 2.8665 2.8665 -17.9319 -13.7629 -2.78243
1 4.29975 4.29975 4.29975 27.1589 3.01045 -7.70429
ITEM: TIMESTEP
1900
ITEM: NUMBER OF ATOMS
16
ITEM: BOX BOUNDS ff ff ff
0.0000000000000000e+00 5.7329999999999997e+00
0.0000000000000000e+00 5.7329999999999997e+00
0.0000000000000000e+00 5.7329999999999997e+00
ITEM: ATOMS type x y z c_outsp[5] c_outsp[6] c_outsp[7]
1 0 0 0 -9.40823 -10.596 16.5396
1 1.43325 1.43325 1.43325 73.5149 -68.499 53.1558
1 2.8665 0 0 -22.6978 -8.90108 11.4922
1 4.29975 1.43325 1.43325 31.5795 24.2378 11.2796
1 0 2.8665 0 -2.30529 23.9061 4.06648
1 1.43325 4.29975 1.43325 86.3942 10.4507 34.5332
1 2.8665 2.8665 0 -12.1129 17.3778 -22.0551
1 4.29975 4.29975 1.43325 39.4016 6.30111 3.08891
1 0 0 2.8665 -24.5839 -10.8856 19.4365
1 1.43325 1.43325 4.29975 33.1568 0.455204 35.7125
1 2.8665 0 2.8665 -5.48869 -75.598 -9.8525
1 4.29975 1.43325 4.29975 5.61636 5.21371 10.6729
1 0 2.8665 2.8665 21.3348 -7.3572 12.2982
1 1.43325 4.29975 4.29975 33.17 -0.255418 20.8421
1 2.8665 2.8665 2.8665 -28.8972 -6.51195 -3.36511
1 4.29975 4.29975 4.29975 27.0406 3.82489 -5.41635
ITEM: TIMESTEP
2000
ITEM: NUMBER OF ATOMS
16
ITEM: BOX BOUNDS ff ff ff
0.0000000000000000e+00 5.7329999999999997e+00
0.0000000000000000e+00 5.7329999999999997e+00
0.0000000000000000e+00 5.7329999999999997e+00
ITEM: ATOMS type x y z c_outsp[5] c_outsp[6] c_outsp[7]
1 0 0 0 -17.5716 -18.4716 12.6433
1 1.43325 1.43325 1.43325 79.4955 -59.2391 52.731
1 2.8665 0 0 -24.933 -23.534 -7.31035
1 4.29975 1.43325 1.43325 27.068 23.4652 4.55007
1 0 2.8665 0 -16.7957 12.0566 18.2469
1 1.43325 4.29975 1.43325 80.4374 -1.45801 24.8175
1 2.8665 2.8665 0 -30.7149 18.8024 -7.20555
1 4.29975 4.29975 1.43325 35.8759 4.8475 8.87042
1 0 0 2.8665 -18.3985 -21.91 2.42859
1 1.43325 1.43325 4.29975 36.2564 -9.61215 29.683
1 2.8665 0 2.8665 -3.11677 -77.3568 -29.4997
1 4.29975 1.43325 4.29975 16.4065 7.45353 -1.867
1 0 2.8665 2.8665 19.0527 -15.5089 16.4401
1 1.43325 4.29975 4.29975 33.3208 0.99419 30.7593
1 2.8665 2.8665 2.8665 -31.1497 -13.0241 -4.6795
1 4.29975 4.29975 4.29975 27.0478 4.17948 -4.25535
ITEM: TIMESTEP
2100
ITEM: NUMBER OF ATOMS
16
ITEM: BOX BOUNDS ff ff ff
0.0000000000000000e+00 5.7329999999999997e+00
0.0000000000000000e+00 5.7329999999999997e+00
0.0000000000000000e+00 5.7329999999999997e+00
ITEM: ATOMS type x y z c_outsp[5] c_outsp[6] c_outsp[7]
1 0 0 0 -20.5627 -18.2746 0.0791945
1 1.43325 1.43325 1.43325 73.9275 -53.3212 62.9401
1 2.8665 0 0 -16.128 -28.2684 -25.2595
1 4.29975 1.43325 1.43325 29.9458 25.2211 2.41583
1 0 2.8665 0 -19.7447 -10.1887 23.5826
1 1.43325 4.29975 1.43325 79.6781 -6.198 20.6682
1 2.8665 2.8665 0 -41.6099 6.36559 -1.90215
1 4.29975 4.29975 1.43325 31.7043 -5.2553 18.6528
1 0 0 2.8665 -1.2227 -21.8484 -14.4819
1 1.43325 1.43325 4.29975 44.7936 -16.1111 25.845
1 2.8665 0 2.8665 -2.07848 -60.4351 -55.0062
1 4.29975 1.43325 4.29975 31.9641 10.299 -2.69485
1 0 2.8665 2.8665 27.4026 -25.4816 12.5486
1 1.43325 4.29975 4.29975 31.4632 -7.49743 42.3395
1 2.8665 2.8665 2.8665 -21.487 -23.3478 -11.2402
1 4.29975 4.29975 4.29975 26.4133 5.11192 -1.36452
ITEM: TIMESTEP
2200
ITEM: NUMBER OF ATOMS
16
ITEM: BOX BOUNDS ff ff ff
0.0000000000000000e+00 5.7329999999999997e+00
0.0000000000000000e+00 5.7329999999999997e+00
0.0000000000000000e+00 5.7329999999999997e+00
ITEM: ATOMS type x y z c_outsp[5] c_outsp[6] c_outsp[7]
1 0 0 0 -15.925 -7.47104 -11.4643
1 1.43325 1.43325 1.43325 62.5374 -60.2653 74.8827
1 2.8665 0 0 -1.25886 -23.7338 -33.012
1 4.29975 1.43325 1.43325 37.0099 22.4821 10.2253
1 0 2.8665 0 -14.4979 -32.0927 17.4149
1 1.43325 4.29975 1.43325 80.0677 -12.9892 27.5726
1 2.8665 2.8665 0 -42.7489 -7.43726 -10.5706
1 4.29975 4.29975 1.43325 27.1721 -22.0306 26.8177
1 0 0 2.8665 20.0208 -12.5532 -20.5368
1 1.43325 1.43325 4.29975 51.5007 -24.6983 26.9281
1 2.8665 0 2.8665 1.92243 -21.4745 -70.2571
1 4.29975 1.43325 4.29975 44.9699 5.79786 8.19461
1 0 2.8665 2.8665 41.0373 -25.7281 7.77904
1 1.43325 4.29975 4.29975 27.4162 -24.7112 47.8852
1 2.8665 2.8665 2.8665 -5.77425 -28.7005 -19.1816
1 4.29975 4.29975 4.29975 23.1991 7.15359 5.3979
ITEM: TIMESTEP
2300
ITEM: NUMBER OF ATOMS
16
ITEM: BOX BOUNDS ff ff ff
0.0000000000000000e+00 5.7329999999999997e+00
0.0000000000000000e+00 5.7329999999999997e+00
0.0000000000000000e+00 5.7329999999999997e+00
ITEM: ATOMS type x y z c_outsp[5] c_outsp[6] c_outsp[7]
1 0 0 0 -8.60108 11.0871 -10.6773
1 1.43325 1.43325 1.43325 51.9875 -77.1296 72.9601
1 2.8665 0 0 9.8995 -13.2387 -30.3441
1 4.29975 1.43325 1.43325 38.6421 12.5571 20.3393
1 0 2.8665 0 -1.34588 -40.9778 3.33998
1 1.43325 4.29975 1.43325 75.4711 -20.2937 40.6982
1 2.8665 2.8665 0 -32.6065 -10.0752 -28.4963
1 4.29975 4.29975 1.43325 22.8901 -40.5274 27.4578
1 0 0 2.8665 35.62 0.791304 -12.3977
1 1.43325 1.43325 4.29975 50.1289 -36.9112 24.0869
1 2.8665 0 2.8665 6.02044 23.876 -58.0735
1 4.29975 1.43325 4.29975 47.1338 -9.31113 17.7853
1 0 2.8665 2.8665 50.4049 -14.3287 12.9423
1 1.43325 4.29975 4.29975 26.3611 -43.4706 42.1472
1 2.8665 2.8665 2.8665 9.55859 -26.0803 -24.9647
1 4.29975 4.29975 4.29975 15.8614 6.31425 14.6589
ITEM: TIMESTEP
2400
ITEM: NUMBER OF ATOMS
16
ITEM: BOX BOUNDS ff ff ff
0.0000000000000000e+00 5.7329999999999997e+00
0.0000000000000000e+00 5.7329999999999997e+00
0.0000000000000000e+00 5.7329999999999997e+00
ITEM: ATOMS type x y z c_outsp[5] c_outsp[6] c_outsp[7]
1 0 0 0 -9.15416 25.5656 4.06568
1 1.43325 1.43325 1.43325 47.1626 -91.104 59.4183
1 2.8665 0 0 9.07982 -3.14923 -20.5068
1 4.29975 1.43325 1.43325 29.5704 1.10456 23.2578
1 0 2.8665 0 16.1873 -31.3919 -5.82326
1 1.43325 4.29975 1.43325 65.509 -33.0763 47.2347
1 2.8665 2.8665 0 -14.795 2.63649 -41.5458
1 4.29975 4.29975 1.43325 20.1558 -53.6921 21.1798
1 0 0 2.8665 36.8175 10.5599 6.60543
1 1.43325 1.43325 4.29975 40.3477 -46.1311 13.5392
1 2.8665 0 2.8665 -0.452484 52.0042 -23.0203
1 4.29975 1.43325 4.29975 37.7811 -26.8526 17.733
1 0 2.8665 2.8665 46.2562 -4.75691 29.1468
1 1.43325 4.29975 4.29975 31.8694 -53.4107 29.5578
1 2.8665 2.8665 2.8665 19.0923 -17.5219 -26.4219
1 4.29975 4.29975 4.29975 6.8884 -0.876521 19.7609
ITEM: TIMESTEP
2500
ITEM: NUMBER OF ATOMS
16
ITEM: BOX BOUNDS ff ff ff
0.0000000000000000e+00 5.7329999999999997e+00
0.0000000000000000e+00 5.7329999999999997e+00
0.0000000000000000e+00 5.7329999999999997e+00
ITEM: ATOMS type x y z c_outsp[5] c_outsp[6] c_outsp[7]
1 0 0 0 -19.7152 25.6558 17.2942
1 1.43325 1.43325 1.43325 48.34 -92.6724 50.1446
1 2.8665 0 0 -2.95221 -1.79159 -12.9017
1 4.29975 1.43325 1.43325 12.6873 -9.03971 18.153
1 0 2.8665 0 27.7857 -11.9153 -2.55574
1 1.43325 4.29975 1.43325 54.5574 -47.6574 43.8798
1 2.8665 2.8665 0 1.51631 21.2739 -41.0096
1 4.29975 4.29975 1.43325 19.3587 -58.3415 14.441
1 0 0 2.8665 22.2465 11.6809 24.4445
1 1.43325 1.43325 4.29975 26.0685 -51.4981 -1.71588
1 2.8665 0 2.8665 -22.0405 52.151 5.94886
1 4.29975 1.43325 4.29975 21.8337 -40.3972 12.3678
1 0 2.8665 2.8665 27.6926 -8.30099 44.0314
1 1.43325 4.29975 4.29975 38.6253 -48.6798 23.5275
1 2.8665 2.8665 2.8665 19.3896 -8.78973 -24.1463
1 4.29975 4.29975 4.29975 1.5649 -10.5947 16.7252
ITEM: TIMESTEP
2600
ITEM: NUMBER OF ATOMS
16
ITEM: BOX BOUNDS ff ff ff
0.0000000000000000e+00 5.7329999999999997e+00
0.0000000000000000e+00 5.7329999999999997e+00
0.0000000000000000e+00 5.7329999999999997e+00
ITEM: ATOMS type x y z c_outsp[5] c_outsp[6] c_outsp[7]
1 0 0 0 -29.5379 15.0183 14.513
1 1.43325 1.43325 1.43325 49.7128 -84.3234 52.3722
1 2.8665 0 0 -14.8407 -11.2289 -16.1178
1 4.29975 1.43325 1.43325 -3.62353 -19.9562 8.90269
1 0 2.8665 0 27.2196 4.83234 8.78243
1 1.43325 4.29975 1.43325 48.053 -54.636 33.332
1 2.8665 2.8665 0 12.2469 32.6673 -31.1421
1 4.29975 4.29975 1.43325 16.3964 -58.7179 11.0452
1 0 0 2.8665 -0.635937 6.70124 30.6372
1 1.43325 1.43325 4.29975 15.8299 -59.8361 -11.6185
1 2.8665 0 2.8665 -47.6542 36.4497 7.49379
1 4.29975 1.43325 4.29975 4.94633 -53.6268 9.12972
1 0 2.8665 2.8665 4.68708 -20.323 48.0785
1 1.43325 4.29975 4.29975 36.6557 -34.2845 30.1371
1 2.8665 2.8665 2.8665 13.7801 -7.45438 -20.009
1 4.29975 4.29975 4.29975 2.38466 -16.701 10.1276
ITEM: TIMESTEP
2700
ITEM: NUMBER OF ATOMS
16
ITEM: BOX BOUNDS ff ff ff
0.0000000000000000e+00 5.7329999999999997e+00
0.0000000000000000e+00 5.7329999999999997e+00
0.0000000000000000e+00 5.7329999999999997e+00
ITEM: ATOMS type x y z c_outsp[5] c_outsp[6] c_outsp[7]
1 0 0 0 -26.5217 4.11872 -1.17308
1 1.43325 1.43325 1.43325 41.33 -73.2377 62.8227
1 2.8665 0 0 -15.0497 -25.6006 -26.4559
1 4.29975 1.43325 1.43325 -12.9284 -29.4564 -0.0604049
1 0 2.8665 0 17.9622 11.1773 17.9175
1 1.43325 4.29975 1.43325 48.658 -53.1766 25.4369
1 2.8665 2.8665 0 21.2912 30.817 -19.8425
1 4.29975 4.29975 1.43325 6.50743 -61.0687 10.6449
1 0 0 2.8665 -20.7972 1.65717 22.8851
1 1.43325 1.43325 4.29975 13.838 -67.5207 -6.75726
1 2.8665 0 2.8665 -59.9549 19.6307 -17.4534
1 4.29975 1.43325 4.29975 -10.8598 -66.043 10.3538
1 0 2.8665 2.8665 -10.4609 -33.5901 40.8802
1 1.43325 4.29975 4.29975 19.9824 -21.3411 40.2664
1 2.8665 2.8665 2.8665 9.11588 -15.283 -17.4259
1 4.29975 4.29975 4.29975 6.73287 -17.7833 6.15783
ITEM: TIMESTEP
2800
ITEM: NUMBER OF ATOMS
16
ITEM: BOX BOUNDS ff ff ff
0.0000000000000000e+00 5.7329999999999997e+00
0.0000000000000000e+00 5.7329999999999997e+00
0.0000000000000000e+00 5.7329999999999997e+00
ITEM: ATOMS type x y z c_outsp[5] c_outsp[6] c_outsp[7]
1 0 0 0 -8.58888 -1.45791 -15.034
1 1.43325 1.43325 1.43325 18.9096 -62.495 73.5696
1 2.8665 0 0 -4.1327 -36.6655 -33.2138
1 4.29975 1.43325 1.43325 -17.7337 -30.3933 -7.83516
1 0 2.8665 0 9.86041 5.76986 19.8463
1 1.43325 4.29975 1.43325 47.2101 -43.2646 20.3898
1 2.8665 2.8665 0 31.3314 17.6615 -8.91506
1 4.29975 4.29975 1.43325 -8.03225 -67.3229 7.61466
1 0 0 2.8665 -29.0367 -0.931598 7.57484
1 1.43325 1.43325 4.29975 10.1729 -65.2169 8.3091
1 2.8665 0 2.8665 -46.8577 3.47111 -51.8098
1 4.29975 1.43325 4.29975 -28.6581 -71.3414 10.7991
1 0 2.8665 2.8665 -11.1777 -46.1428 27.3426
1 1.43325 4.29975 4.29975 -5.42211 -17.7741 41.5834
1 2.8665 2.8665 2.8665 11.2396 -28.8182 -18.2773
1 4.29975 4.29975 4.29975 9.81332 -15.6015 5.3297
ITEM: TIMESTEP
2900
ITEM: NUMBER OF ATOMS
16
ITEM: BOX BOUNDS ff ff ff
0.0000000000000000e+00 5.7329999999999997e+00
0.0000000000000000e+00 5.7329999999999997e+00
0.0000000000000000e+00 5.7329999999999997e+00
ITEM: ATOMS type x y z c_outsp[5] c_outsp[6] c_outsp[7]
1 0 0 0 14.875 -1.83664 -15.2495
1 1.43325 1.43325 1.43325 -7.92664 -51.9033 72.7426
1 2.8665 0 0 8.48686 -39.9559 -32.6037
1 4.29975 1.43325 1.43325 -19.7733 -18.7473 -19.7278
1 0 2.8665 0 9.48639 -4.70048 18.4644
1 1.43325 4.29975 1.43325 37.9269 -27.967 18.2846
1 2.8665 2.8665 0 39.0763 0.947992 2.53174
1 4.29975 4.29975 1.43325 -19.7921 -72.3168 -6.94646
1 0 0 2.8665 -25.4164 -1.63928 -3.96427
1 1.43325 1.43325 4.29975 -4.3841 -50.439 18.9295
1 2.8665 0 2.8665 -12.7301 -15.6962 -74.3186
1 4.29975 1.43325 4.29975 -47.3633 -66.2979 -0.182046
1 0 2.8665 2.8665 -0.0328777 -54.3087 16.7696
1 1.43325 4.29975 4.29975 -28.3801 -21.593 30.5531
1 2.8665 2.8665 2.8665 20.5396 -42.0985 -18.7046