ITEM: TIMESTEP
0
ITEM: NUMBER OF ATOMS
2
ITEM: BOX BOUNDS ff ff ff
0.0000000000000000e+00 6.0000000000000000e+00
0.0000000000000000e+00 3.0000000000000000e+00
0.0000000000000000e+00 3.0000000000000000e+00
ITEM: ATOMS type x y z c_outsp[1] c_outsp[2] c_outsp[3] fx fy fz
1 0 0 0 1 0 0 0 0 0
1 3 0 0 1 0 0 0 0 0
ITEM: TIMESTEP
10
ITEM: NUMBER OF ATOMS
2
ITEM: BOX BOUNDS ff ff ff
0.0000000000000000e+00 6.0000000000000000e+00
0.0000000000000000e+00 3.0000000000000000e+00
0.0000000000000000e+00 3.0000000000000000e+00
ITEM: ATOMS type x y z c_outsp[1] c_outsp[2] c_outsp[3] fx fy fz
1 0 0 0 0.999953 -0.00927753 -0.00270902 0 0 0
1 3 0 0 0.999997 -0.00239768 -0.00023894 0 0 0
ITEM: TIMESTEP
20
ITEM: NUMBER OF ATOMS
2
ITEM: BOX BOUNDS ff ff ff
0.0000000000000000e+00 6.0000000000000000e+00
0.0000000000000000e+00 3.0000000000000000e+00
0.0000000000000000e+00 3.0000000000000000e+00
ITEM: ATOMS type x y z c_outsp[1] c_outsp[2] c_outsp[3] fx fy fz
1 0 0 0 0.999996 -0.00166032 -0.00216434 0 0 0
1 3 0 0 0.999977 -0.00499459 -0.0046679 0 0 0
ITEM: TIMESTEP
30
ITEM: NUMBER OF ATOMS
2
ITEM: BOX BOUNDS ff ff ff
0.0000000000000000e+00 6.0000000000000000e+00
0.0000000000000000e+00 3.0000000000000000e+00
0.0000000000000000e+00 3.0000000000000000e+00
ITEM: ATOMS type x y z c_outsp[1] c_outsp[2] c_outsp[3] fx fy fz
1 0 0 0 0.999998 -0.00105247 -0.00138113 0 0 0
1 3 0 0 0.999971 -0.00501536 0.00580552 0 0 0
ITEM: TIMESTEP
40
ITEM: NUMBER OF ATOMS
2
ITEM: BOX BOUNDS ff ff ff
0.0000000000000000e+00 6.0000000000000000e+00
0.0000000000000000e+00 3.0000000000000000e+00
0.0000000000000000e+00 3.0000000000000000e+00
ITEM: ATOMS type x y z c_outsp[1] c_outsp[2] c_outsp[3] fx fy fz
1 0 0 0 0.999916 -0.00720018 0.0107333 0 0 0
1 3 0 0 0.999972 -0.0070923 -0.0025322 0 0 0
ITEM: TIMESTEP
50
ITEM: NUMBER OF ATOMS
2
ITEM: BOX BOUNDS ff ff ff
0.0000000000000000e+00 6.0000000000000000e+00
0.0000000000000000e+00 3.0000000000000000e+00
0.0000000000000000e+00 3.0000000000000000e+00
ITEM: ATOMS type x y z c_outsp[1] c_outsp[2] c_outsp[3] fx fy fz
1 0 0 0 0.99976 -0.0135302 0.0172453 0 0 0
1 3 0 0 0.99997 -0.00770016 0.00106399 0 0 0
ITEM: TIMESTEP
60
ITEM: NUMBER OF ATOMS
2
ITEM: BOX BOUNDS ff ff ff
0.0000000000000000e+00 6.0000000000000000e+00
0.0000000000000000e+00 3.0000000000000000e+00
0.0000000000000000e+00 3.0000000000000000e+00
ITEM: ATOMS type x y z c_outsp[1] c_outsp[2] c_outsp[3] fx fy fz
1 0 0 0 0.999648 -0.0179817 0.0195298 0 0 0
1 3 0 0 0.999842 -0.0170605 -0.00490685 0 0 0
ITEM: TIMESTEP
70
ITEM: NUMBER OF ATOMS
2
ITEM: BOX BOUNDS ff ff ff
0.0000000000000000e+00 6.0000000000000000e+00
0.0000000000000000e+00 3.0000000000000000e+00
0.0000000000000000e+00 3.0000000000000000e+00
ITEM: ATOMS type x y z c_outsp[1] c_outsp[2] c_outsp[3] fx fy fz
1 0 0 0 0.999586 -0.0202503 0.0204479 0 0 0
1 3 0 0 0.999898 -0.0138663 -0.00354026 0 0 0
ITEM: TIMESTEP
80
ITEM: NUMBER OF ATOMS
2
ITEM: BOX BOUNDS ff ff ff
0.0000000000000000e+00 6.0000000000000000e+00
0.0000000000000000e+00 3.0000000000000000e+00
0.0000000000000000e+00 3.0000000000000000e+00
ITEM: ATOMS type x y z c_outsp[1] c_outsp[2] c_outsp[3] fx fy fz
1 0 0 0 0.999785 -0.0162039 0.0129187 0 0 0
1 3 0 0 0.999936 -0.0110957 -0.00226565 0 0 0
ITEM: TIMESTEP
90
ITEM: NUMBER OF ATOMS
2
ITEM: BOX BOUNDS ff ff ff
0.0000000000000000e+00 6.0000000000000000e+00
0.0000000000000000e+00 3.0000000000000000e+00
0.0000000000000000e+00 3.0000000000000000e+00
ITEM: ATOMS type x y z c_outsp[1] c_outsp[2] c_outsp[3] fx fy fz
1 0 0 0 0.999715 -0.0182717 0.0153819 0 0 0
1 3 0 0 0.99988 -0.0131692 -0.00811083 0 0 0
ITEM: TIMESTEP
100
ITEM: NUMBER OF ATOMS
2
ITEM: BOX BOUNDS ff ff ff
0.0000000000000000e+00 6.0000000000000000e+00
0.0000000000000000e+00 3.0000000000000000e+00
0.0000000000000000e+00 3.0000000000000000e+00
ITEM: ATOMS type x y z c_outsp[1] c_outsp[2] c_outsp[3] fx fy fz
1 0 0 0 0.999773 -0.0191002 0.00940124 0 0 0
1 3 0 0 0.999973 -0.00710975 -0.00197724 0 0 0
ITEM: TIMESTEP
110
ITEM: NUMBER OF ATOMS
2
ITEM: BOX BOUNDS ff ff ff
0.0000000000000000e+00 6.0000000000000000e+00
0.0000000000000000e+00 3.0000000000000000e+00
0.0000000000000000e+00 3.0000000000000000e+00
ITEM: ATOMS type x y z c_outsp[1] c_outsp[2] c_outsp[3] fx fy fz
1 0 0 0 0.999697 -0.0235099 0.00732683 0 0 0
1 3 0 0 0.999944 -0.00712234 -0.00783793 0 0 0
ITEM: TIMESTEP
120
ITEM: NUMBER OF ATOMS
2
ITEM: BOX BOUNDS ff ff ff
0.0000000000000000e+00 6.0000000000000000e+00
0.0000000000000000e+00 3.0000000000000000e+00
0.0000000000000000e+00 3.0000000000000000e+00
ITEM: ATOMS type x y z c_outsp[1] c_outsp[2] c_outsp[3] fx fy fz
1 0 0 0 0.999335 -0.0364307 0.00137333 0 0 0
1 3 0 0 0.999998 0.000163107 0.00217547 0 0 0
ITEM: TIMESTEP
130
ITEM: NUMBER OF ATOMS
2
ITEM: BOX BOUNDS ff ff ff
0.0000000000000000e+00 6.0000000000000000e+00
0.0000000000000000e+00 3.0000000000000000e+00
0.0000000000000000e+00 3.0000000000000000e+00
ITEM: ATOMS type x y z c_outsp[1] c_outsp[2] c_outsp[3] fx fy fz
1 0 0 0 0.999491 -0.031134 0.00697523 0 0 0
1 3 0 0 0.999811 -0.0170165 -0.00942119 0 0 0
ITEM: TIMESTEP
140
ITEM: NUMBER OF ATOMS
2
ITEM: BOX BOUNDS ff ff ff
0.0000000000000000e+00 6.0000000000000000e+00
0.0000000000000000e+00 3.0000000000000000e+00
0.0000000000000000e+00 3.0000000000000000e+00
ITEM: ATOMS type x y z c_outsp[1] c_outsp[2] c_outsp[3] fx fy fz
1 0 0 0 0.999107 -0.0416158 0.00734009 0 0 0
1 3 0 0 0.999835 -0.01729 -0.00555866 0 0 0
ITEM: TIMESTEP
150
ITEM: NUMBER OF ATOMS
2
ITEM: BOX BOUNDS ff ff ff
0.0000000000000000e+00 6.0000000000000000e+00
0.0000000000000000e+00 3.0000000000000000e+00
0.0000000000000000e+00 3.0000000000000000e+00
ITEM: ATOMS type x y z c_outsp[1] c_outsp[2] c_outsp[3] fx fy fz
1 0 0 0 0.99894 -0.0456853 0.0056305 0 0 0
1 3 0 0 0.9998 -0.0198133 0.0026259 0 0 0
ITEM: TIMESTEP
160
ITEM: NUMBER OF ATOMS
2
ITEM: BOX BOUNDS ff ff ff
0.0000000000000000e+00 6.0000000000000000e+00
0.0000000000000000e+00 3.0000000000000000e+00
0.0000000000000000e+00 3.0000000000000000e+00
ITEM: ATOMS type x y z c_outsp[1] c_outsp[2] c_outsp[3] fx fy fz
1 0 0 0 0.998213 -0.0596187 0.0040973 0 0 0
1 3 0 0 0.999715 -0.0210751 0.0112194 0 0 0
ITEM: TIMESTEP
170
ITEM: NUMBER OF ATOMS
2
ITEM: BOX BOUNDS ff ff ff
0.0000000000000000e+00 6.0000000000000000e+00
0.0000000000000000e+00 3.0000000000000000e+00
0.0000000000000000e+00 3.0000000000000000e+00
ITEM: ATOMS type x y z c_outsp[1] c_outsp[2] c_outsp[3] fx fy fz
1 0 0 0 0.998304 -0.0580157 0.00491705 0 0 0
1 3 0 0 0.99975 -0.0179668 0.0133212 0 0 0
ITEM: TIMESTEP
180
ITEM: NUMBER OF ATOMS
2
ITEM: BOX BOUNDS ff ff ff
0.0000000000000000e+00 6.0000000000000000e+00
0.0000000000000000e+00 3.0000000000000000e+00
0.0000000000000000e+00 3.0000000000000000e+00
ITEM: ATOMS type x y z c_outsp[1] c_outsp[2] c_outsp[3] fx fy fz
1 0 0 0 0.99809 -0.0608939 0.0104432 0 0 0
1 3 0 0 0.999688 -0.0185113 0.0167614 0 0 0
ITEM: TIMESTEP
190
ITEM: NUMBER OF ATOMS
2
ITEM: BOX BOUNDS ff ff ff
0.0000000000000000e+00 6.0000000000000000e+00
0.0000000000000000e+00 3.0000000000000000e+00
0.0000000000000000e+00 3.0000000000000000e+00
ITEM: ATOMS type x y z c_outsp[1] c_outsp[2] c_outsp[3] fx fy fz
1 0 0 0 0.998661 -0.0517115 0.00127987 0 0 0
1 3 0 0 0.999724 -0.0194272 0.0131988 0 0 0
ITEM: TIMESTEP
200
ITEM: NUMBER OF ATOMS
2
ITEM: BOX BOUNDS ff ff ff
0.0000000000000000e+00 6.0000000000000000e+00
0.0000000000000000e+00 3.0000000000000000e+00
0.0000000000000000e+00 3.0000000000000000e+00
ITEM: ATOMS type x y z c_outsp[1] c_outsp[2] c_outsp[3] fx fy fz
1 0 0 0 0.998731 -0.050323 -0.00176204 0 0 0
1 3 0 0 0.999833 -0.00729892 0.0167652 0 0 0
ITEM: TIMESTEP
210
ITEM: NUMBER OF ATOMS
2
ITEM: BOX BOUNDS ff ff ff
0.0000000000000000e+00 6.0000000000000000e+00
0.0000000000000000e+00 3.0000000000000000e+00
0.0000000000000000e+00 3.0000000000000000e+00
ITEM: ATOMS type x y z c_outsp[1] c_outsp[2] c_outsp[3] fx fy fz
1 0 0 0 0.998919 -0.0463318 0.00369034 0 0 0
1 3 0 0 0.999598 -0.0174433 0.0223717 0 0 0
ITEM: TIMESTEP
220
ITEM: NUMBER OF ATOMS
2
ITEM: BOX BOUNDS ff ff ff
0.0000000000000000e+00 6.0000000000000000e+00
0.0000000000000000e+00 3.0000000000000000e+00
0.0000000000000000e+00 3.0000000000000000e+00
ITEM: ATOMS type x y z c_outsp[1] c_outsp[2] c_outsp[3] fx fy fz
1 0 0 0 0.999128 -0.0407316 0.00914774 0 0 0
1 3 0 0 0.99963 -0.018898 0.0195391 0 0 0
ITEM: TIMESTEP
230
ITEM: NUMBER OF ATOMS
2
ITEM: BOX BOUNDS ff ff ff
0.0000000000000000e+00 6.0000000000000000e+00
0.0000000000000000e+00 3.0000000000000000e+00
0.0000000000000000e+00 3.0000000000000000e+00
ITEM: ATOMS type x y z c_outsp[1] c_outsp[2] c_outsp[3] fx fy fz
1 0 0 0 0.998931 -0.0452302 0.00957546 0 0 0
1 3 0 0 0.9996 -0.0226304 0.016983 0 0 0
ITEM: TIMESTEP
240
ITEM: NUMBER OF ATOMS
2
ITEM: BOX BOUNDS ff ff ff
0.0000000000000000e+00 6.0000000000000000e+00
0.0000000000000000e+00 3.0000000000000000e+00
0.0000000000000000e+00 3.0000000000000000e+00
ITEM: ATOMS type x y z c_outsp[1] c_outsp[2] c_outsp[3] fx fy fz
1 0 0 0 0.999218 -0.0395251 -0.000562351 0 0 0
1 3 0 0 0.999639 -0.0102046 0.0248434 0 0 0
ITEM: TIMESTEP
250
ITEM: NUMBER OF ATOMS
2
ITEM: BOX BOUNDS ff ff ff
0.0000000000000000e+00 6.0000000000000000e+00
0.0000000000000000e+00 3.0000000000000000e+00
0.0000000000000000e+00 3.0000000000000000e+00
ITEM: ATOMS type x y z c_outsp[1] c_outsp[2] c_outsp[3] fx fy fz
1 0 0 0 0.998924 -0.0463657 0.00134737 0 0 0
1 3 0 0 0.999545 -0.021152 0.0215194 0 0 0
ITEM: TIMESTEP
260
ITEM: NUMBER OF ATOMS
2
ITEM: BOX BOUNDS ff ff ff
0.0000000000000000e+00 6.0000000000000000e+00
0.0000000000000000e+00 3.0000000000000000e+00
0.0000000000000000e+00 3.0000000000000000e+00
ITEM: ATOMS type x y z c_outsp[1] c_outsp[2] c_outsp[3] fx fy fz
1 0 0 0 0.999059 -0.0432905 0.00270467 0 0 0
1 3 0 0 0.999731 -0.0183846 0.0141656 0 0 0
ITEM: TIMESTEP
270
ITEM: NUMBER OF ATOMS
2
ITEM: BOX BOUNDS ff ff ff
0.0000000000000000e+00 6.0000000000000000e+00
0.0000000000000000e+00 3.0000000000000000e+00
0.0000000000000000e+00 3.0000000000000000e+00
ITEM: ATOMS type x y z c_outsp[1] c_outsp[2] c_outsp[3] fx fy fz
1 0 0 0 0.998971 -0.0429432 0.0145879 0 0 0
1 3 0 0 0.999324 -0.0288316 0.0227978 0 0 0
ITEM: TIMESTEP
280
ITEM: NUMBER OF ATOMS
2
ITEM: BOX BOUNDS ff ff ff
0.0000000000000000e+00 6.0000000000000000e+00
0.0000000000000000e+00 3.0000000000000000e+00
0.0000000000000000e+00 3.0000000000000000e+00
ITEM: ATOMS type x y z c_outsp[1] c_outsp[2] c_outsp[3] fx fy fz
1 0 0 0 0.998868 -0.0474686 0.00321727 0 0 0
1 3 0 0 0.999069 -0.0300664 0.0309428 0 0 0
ITEM: TIMESTEP
290
ITEM: NUMBER OF ATOMS
2
ITEM: BOX BOUNDS ff ff ff
0.0000000000000000e+00 6.0000000000000000e+00
0.0000000000000000e+00 3.0000000000000000e+00
0.0000000000000000e+00 3.0000000000000000e+00
ITEM: ATOMS type x y z c_outsp[1] c_outsp[2] c_outsp[3] fx fy fz
1 0 0 0 0.998936 -0.0460485 0.00238709 0 0 0
1 3 0 0 0.998953 -0.0307426 0.0338758 0 0 0
ITEM: TIMESTEP
300
ITEM: NUMBER OF ATOMS
2
ITEM: BOX BOUNDS ff ff ff
0.0000000000000000e+00 6.0000000000000000e+00
0.0000000000000000e+00 3.0000000000000000e+00
0.0000000000000000e+00 3.0000000000000000e+00
ITEM: ATOMS type x y z c_outsp[1] c_outsp[2] c_outsp[3] fx fy fz
1 0 0 0 0.998812 -0.0480655 0.00800273 0 0 0
1 3 0 0 0.998825 -0.0287352 0.0390255 0 0 0
ITEM: TIMESTEP
310
ITEM: NUMBER OF ATOMS
2
ITEM: BOX BOUNDS ff ff ff
0.0000000000000000e+00 6.0000000000000000e+00
0.0000000000000000e+00 3.0000000000000000e+00
0.0000000000000000e+00 3.0000000000000000e+00
ITEM: ATOMS type x y z c_outsp[1] c_outsp[2] c_outsp[3] fx fy fz
1 0 0 0 0.9989 -0.0467009 0.00418378 0 0 0
1 3 0 0 0.998352 -0.0430263 0.037978 0 0 0
ITEM: TIMESTEP
320
ITEM: NUMBER OF ATOMS
2
ITEM: BOX BOUNDS ff ff ff
0.0000000000000000e+00 6.0000000000000000e+00
0.0000000000000000e+00 3.0000000000000000e+00
0.0000000000000000e+00 3.0000000000000000e+00
ITEM: ATOMS type x y z c_outsp[1] c_outsp[2] c_outsp[3] fx fy fz
1 0 0 0 0.999236 -0.0387658 0.00499513 0 0 0
1 3 0 0 0.998112 -0.0368752 0.0491112 0 0 0
ITEM: TIMESTEP
330
ITEM: NUMBER OF ATOMS
2
ITEM: BOX BOUNDS ff ff ff
0.0000000000000000e+00 6.0000000000000000e+00
0.0000000000000000e+00 3.0000000000000000e+00
0.0000000000000000e+00 3.0000000000000000e+00
ITEM: ATOMS type x y z c_outsp[1] c_outsp[2] c_outsp[3] fx fy fz
1 0 0 0 0.999093 -0.0423181 0.0046535 0 0 0
1 3 0 0 0.998086 -0.0439464 0.0435139 0 0 0
ITEM: TIMESTEP
340
ITEM: NUMBER OF ATOMS
2
ITEM: BOX BOUNDS ff ff ff
0.0000000000000000e+00 6.0000000000000000e+00
0.0000000000000000e+00 3.0000000000000000e+00
0.0000000000000000e+00 3.0000000000000000e+00
ITEM: ATOMS type x y z c_outsp[1] c_outsp[2] c_outsp[3] fx fy fz
1 0 0 0 0.999574 -0.0282298 0.0074286 0 0 0
1 3 0 0 0.99801 -0.0468968 0.0421438 0 0 0
ITEM: TIMESTEP
350
ITEM: NUMBER OF ATOMS
2
ITEM: BOX BOUNDS ff ff ff
0.0000000000000000e+00 6.0000000000000000e+00
0.0000000000000000e+00 3.0000000000000000e+00
0.0000000000000000e+00 3.0000000000000000e+00
ITEM: ATOMS type x y z c_outsp[1] c_outsp[2] c_outsp[3] fx fy fz
1 0 0 0 0.999562 -0.0264521 0.0132626 0 0 0
1 3 0 0 0.99741 -0.0608527 0.0383447 0 0 0
ITEM: TIMESTEP
360
ITEM: NUMBER OF ATOMS
2
ITEM: BOX BOUNDS ff ff ff
0.0000000000000000e+00 6.0000000000000000e+00
0.0000000000000000e+00 3.0000000000000000e+00
0.0000000000000000e+00 3.0000000000000000e+00
ITEM: ATOMS type x y z c_outsp[1] c_outsp[2] c_outsp[3] fx fy fz
1 0 0 0 0.999568 -0.027745 0.00968718 0 0 0
1 3 0 0 0.997301 -0.0640409 0.0359025 0 0 0
ITEM: TIMESTEP
370
ITEM: NUMBER OF ATOMS
2
ITEM: BOX BOUNDS ff ff ff
0.0000000000000000e+00 6.0000000000000000e+00
0.0000000000000000e+00 3.0000000000000000e+00
0.0000000000000000e+00 3.0000000000000000e+00
ITEM: ATOMS type x y z c_outsp[1] c_outsp[2] c_outsp[3] fx fy fz
1 0 0 0 0.999307 -0.0367214 0.00610446 0 0 0
1 3 0 0 0.997257 -0.0645219 0.0362765 0 0 0
ITEM: TIMESTEP
380
ITEM: NUMBER OF ATOMS
2
ITEM: BOX BOUNDS ff ff ff
0.0000000000000000e+00 6.0000000000000000e+00
0.0000000000000000e+00 3.0000000000000000e+00
0.0000000000000000e+00 3.0000000000000000e+00
ITEM: ATOMS type x y z c_outsp[1] c_outsp[2] c_outsp[3] fx fy fz
1 0 0 0 0.999243 -0.0334616 0.0198311 0 0 0
1 3 0 0 0.997687 -0.0618359 0.0282159 0 0 0
ITEM: TIMESTEP
390
ITEM: NUMBER OF ATOMS
2
ITEM: BOX BOUNDS ff ff ff
0.0000000000000000e+00 6.0000000000000000e+00
0.0000000000000000e+00 3.0000000000000000e+00
0.0000000000000000e+00 3.0000000000000000e+00
ITEM: ATOMS type x y z c_outsp[1] c_outsp[2] c_outsp[3] fx fy fz
1 0 0 0 0.999592 -0.0219657 0.0182515 0 0 0
1 3 0 0 0.998417 -0.0494821 0.0267454 0 0 0
ITEM: TIMESTEP
400
ITEM: NUMBER OF ATOMS
2
ITEM: BOX BOUNDS ff ff ff
0.0000000000000000e+00 6.0000000000000000e+00
0.0000000000000000e+00 3.0000000000000000e+00
0.0000000000000000e+00 3.0000000000000000e+00
ITEM: ATOMS type x y z c_outsp[1] c_outsp[2] c_outsp[3] fx fy fz
1 0 0 0 0.999826 -0.0114232 0.014765 0 0 0
1 3 0 0 0.99843 -0.0476181 0.0295076 0 0 0
ITEM: TIMESTEP
410
ITEM: NUMBER OF ATOMS
2
ITEM: BOX BOUNDS ff ff ff
0.0000000000000000e+00 6.0000000000000000e+00
0.0000000000000000e+00 3.0000000000000000e+00
0.0000000000000000e+00 3.0000000000000000e+00
ITEM: ATOMS type x y z c_outsp[1] c_outsp[2] c_outsp[3] fx fy fz
1 0 0 0 0.999526 -0.0246974 0.0183666 0 0 0
1 3 0 0 0.997787 -0.0579035 0.03268 0 0 0
ITEM: TIMESTEP
420
ITEM: NUMBER OF ATOMS
2
ITEM: BOX BOUNDS ff ff ff
0.0000000000000000e+00 6.0000000000000000e+00
0.0000000000000000e+00 3.0000000000000000e+00
0.0000000000000000e+00 3.0000000000000000e+00
ITEM: ATOMS type x y z c_outsp[1] c_outsp[2] c_outsp[3] fx fy fz
1 0 0 0 0.999632 -0.0182726 0.0200688 0 0 0
1 3 0 0 0.997816 -0.0551877 0.0362974 0 0 0
ITEM: TIMESTEP
430
ITEM: NUMBER OF ATOMS
2
ITEM: BOX BOUNDS ff ff ff
0.0000000000000000e+00 6.0000000000000000e+00
0.0000000000000000e+00 3.0000000000000000e+00
0.0000000000000000e+00 3.0000000000000000e+00
ITEM: ATOMS type x y z c_outsp[1] c_outsp[2] c_outsp[3] fx fy fz
1 0 0 0 0.999602 -0.0201206 0.0197912 0 0 0
1 3 0 0 0.998527 -0.0492609 0.0227325 0 0 0
ITEM: TIMESTEP
440
ITEM: NUMBER OF ATOMS
2
ITEM: BOX BOUNDS ff ff ff
0.0000000000000000e+00 6.0000000000000000e+00
0.0000000000000000e+00 3.0000000000000000e+00
0.0000000000000000e+00 3.0000000000000000e+00
ITEM: ATOMS type x y z c_outsp[1] c_outsp[2] c_outsp[3] fx fy fz
1 0 0 0 0.999492 -0.0172859 0.0267803 0 0 0
1 3 0 0 0.998795 -0.0451958 0.0191391 0 0 0
ITEM: TIMESTEP
450
ITEM: NUMBER OF ATOMS
2
ITEM: BOX BOUNDS ff ff ff
0.0000000000000000e+00 6.0000000000000000e+00
0.0000000000000000e+00 3.0000000000000000e+00
0.0000000000000000e+00 3.0000000000000000e+00
ITEM: ATOMS type x y z c_outsp[1] c_outsp[2] c_outsp[3] fx fy fz
1 0 0 0 0.999554 -0.00841671 0.0286619 0 0 0
1 3 0 0 0.99902 -0.0430568 0.0102635 0 0 0
ITEM: TIMESTEP
460
ITEM: NUMBER OF ATOMS
2
ITEM: BOX BOUNDS ff ff ff
0.0000000000000000e+00 6.0000000000000000e+00
0.0000000000000000e+00 3.0000000000000000e+00
0.0000000000000000e+00 3.0000000000000000e+00
ITEM: ATOMS type x y z c_outsp[1] c_outsp[2] c_outsp[3] fx fy fz
1 0 0 0 0.999301 -0.00739504 0.0366386 0 0 0
1 3 0 0 0.999198 -0.0385027 0.0109612 0 0 0
ITEM: TIMESTEP
470
ITEM: NUMBER OF ATOMS
2
ITEM: BOX BOUNDS ff ff ff
0.0000000000000000e+00 6.0000000000000000e+00
0.0000000000000000e+00 3.0000000000000000e+00
0.0000000000000000e+00 3.0000000000000000e+00
ITEM: ATOMS type x y z c_outsp[1] c_outsp[2] c_outsp[3] fx fy fz
1 0 0 0 0.999131 -0.0116875 0.0400104 0 0 0
1 3 0 0 0.99922 -0.0385754 0.00848635 0 0 0
ITEM: TIMESTEP
480
ITEM: NUMBER OF ATOMS
2
ITEM: BOX BOUNDS ff ff ff
0.0000000000000000e+00 6.0000000000000000e+00
0.0000000000000000e+00 3.0000000000000000e+00
0.0000000000000000e+00 3.0000000000000000e+00
ITEM: ATOMS type x y z c_outsp[1] c_outsp[2] c_outsp[3] fx fy fz
1 0 0 0 0.998951 -0.0164526 0.0427406 0 0 0
1 3 0 0 0.999198 -0.0376259 0.0137007 0 0 0
ITEM: TIMESTEP
490
ITEM: NUMBER OF ATOMS
2
ITEM: BOX BOUNDS ff ff ff
0.0000000000000000e+00 6.0000000000000000e+00
0.0000000000000000e+00 3.0000000000000000e+00
0.0000000000000000e+00 3.0000000000000000e+00
ITEM: ATOMS type x y z c_outsp[1] c_outsp[2] c_outsp[3] fx fy fz
1 0 0 0 0.998918 -0.0201398 0.0419213 0 0 0
1 3 0 0 0.999391 -0.0295371 0.0185691 0 0 0
ITEM: TIMESTEP
500
ITEM: NUMBER OF ATOMS
2
ITEM: BOX BOUNDS ff ff ff
0.0000000000000000e+00 6.0000000000000000e+00
0.0000000000000000e+00 3.0000000000000000e+00
0.0000000000000000e+00 3.0000000000000000e+00
ITEM: ATOMS type x y z c_outsp[1] c_outsp[2] c_outsp[3] fx fy fz
1 0 0 0 0.998172 -0.0323215 0.0510609 0 0 0
1 3 0 0 0.999282 -0.0324612 0.0195588 0 0 0
ITEM: TIMESTEP
510
ITEM: NUMBER OF ATOMS
2
ITEM: BOX BOUNDS ff ff ff
0.0000000000000000e+00 6.0000000000000000e+00
0.0000000000000000e+00 3.0000000000000000e+00
0.0000000000000000e+00 3.0000000000000000e+00
ITEM: ATOMS type x y z c_outsp[1] c_outsp[2] c_outsp[3] fx fy fz
1 0 0 0 0.998321 -0.0398751 0.0420092 0 0 0
1 3 0 0 0.999525 -0.0283355 0.0120916 0 0 0
ITEM: TIMESTEP
520
ITEM: NUMBER OF ATOMS
2
ITEM: BOX BOUNDS ff ff ff
0.0000000000000000e+00 6.0000000000000000e+00
0.0000000000000000e+00 3.0000000000000000e+00
0.0000000000000000e+00 3.0000000000000000e+00
ITEM: ATOMS type x y z c_outsp[1] c_outsp[2] c_outsp[3] fx fy fz
1 0 0 0 0.998526 -0.0365988 0.0400852 0 0 0
1 3 0 0 0.999614 -0.0232105 0.0152717 0 0 0
ITEM: TIMESTEP
530
ITEM: NUMBER OF ATOMS
2
ITEM: BOX BOUNDS ff ff ff
0.0000000000000000e+00 6.0000000000000000e+00
0.0000000000000000e+00 3.0000000000000000e+00
0.0000000000000000e+00 3.0000000000000000e+00
ITEM: ATOMS type x y z c_outsp[1] c_outsp[2] c_outsp[3] fx fy fz
1 0 0 0 0.998642 -0.0313926 0.0415824 0 0 0
1 3 0 0 0.999547 -0.0215592 0.0210004 0 0 0
ITEM: TIMESTEP
540
ITEM: NUMBER OF ATOMS
2
ITEM: BOX BOUNDS ff ff ff
0.0000000000000000e+00 6.0000000000000000e+00
0.0000000000000000e+00 3.0000000000000000e+00
0.0000000000000000e+00 3.0000000000000000e+00
ITEM: ATOMS type x y z c_outsp[1] c_outsp[2] c_outsp[3] fx fy fz
1 0 0 0 0.998912 -0.0316591 0.0342523 0 0 0
1 3 0 0 0.999625 -0.015791 0.0223635 0 0 0
ITEM: TIMESTEP
550
ITEM: NUMBER OF ATOMS
2
ITEM: BOX BOUNDS ff ff ff
0.0000000000000000e+00 6.0000000000000000e+00
0.0000000000000000e+00 3.0000000000000000e+00
0.0000000000000000e+00 3.0000000000000000e+00
ITEM: ATOMS type x y z c_outsp[1] c_outsp[2] c_outsp[3] fx fy fz
1 0 0 0 0.998998 -0.0291802 0.0339311 0 0 0
1 3 0 0 0.999635 -0.0226715 0.0147236 0 0 0
ITEM: TIMESTEP
560
ITEM: NUMBER OF ATOMS
2
ITEM: BOX BOUNDS ff ff ff
0.0000000000000000e+00 6.0000000000000000e+00
0.0000000000000000e+00 3.0000000000000000e+00
0.0000000000000000e+00 3.0000000000000000e+00
ITEM: ATOMS type x y z c_outsp[1] c_outsp[2] c_outsp[3] fx fy fz
1 0 0 0 0.998647 -0.0307544 0.0419268 0 0 0
1 3 0 0 0.999431 -0.0193614 0.0276067 0 0 0
ITEM: TIMESTEP
570
ITEM: NUMBER OF ATOMS
2
ITEM: BOX BOUNDS ff ff ff
0.0000000000000000e+00 6.0000000000000000e+00
0.0000000000000000e+00 3.0000000000000000e+00
0.0000000000000000e+00 3.0000000000000000e+00
ITEM: ATOMS type x y z c_outsp[1] c_outsp[2] c_outsp[3] fx fy fz
1 0 0 0 0.998492 -0.0379178 0.0396938 0 0 0
1 3 0 0 0.99946 -0.0262074 0.0198415 0 0 0
ITEM: TIMESTEP
580
ITEM: NUMBER OF ATOMS
2
ITEM: BOX BOUNDS ff ff ff
0.0000000000000000e+00 6.0000000000000000e+00
0.0000000000000000e+00 3.0000000000000000e+00
0.0000000000000000e+00 3.0000000000000000e+00
ITEM: ATOMS type x y z c_outsp[1] c_outsp[2] c_outsp[3] fx fy fz
1 0 0 0 0.998295 -0.0374424 0.044782 0 0 0
1 3 0 0 0.999635 -0.0205801 0.0175257 0 0 0
ITEM: TIMESTEP
590
ITEM: NUMBER OF ATOMS
2
ITEM: BOX BOUNDS ff ff ff
0.0000000000000000e+00 6.0000000000000000e+00
0.0000000000000000e+00 3.0000000000000000e+00
0.0000000000000000e+00 3.0000000000000000e+00
ITEM: ATOMS type x y z c_outsp[1] c_outsp[2] c_outsp[3] fx fy fz
1 0 0 0 0.997864 -0.0488787 0.0433457 0 0 0
1 3 0 0 0.999536 -0.00572175 0.029906 0 0 0
ITEM: TIMESTEP
600
ITEM: NUMBER OF ATOMS
2
ITEM: BOX BOUNDS ff ff ff
0.0000000000000000e+00 6.0000000000000000e+00
0.0000000000000000e+00 3.0000000000000000e+00
0.0000000000000000e+00 3.0000000000000000e+00
ITEM: ATOMS type x y z c_outsp[1] c_outsp[2] c_outsp[3] fx fy fz
1 0 0 0 0.997805 -0.0506178 0.0427042 0 0 0
1 3 0 0 0.999633 0.000877737 0.0270874 0 0 0
ITEM: TIMESTEP
610
ITEM: NUMBER OF ATOMS
2
ITEM: BOX BOUNDS ff ff ff
0.0000000000000000e+00 6.0000000000000000e+00
0.0000000000000000e+00 3.0000000000000000e+00
0.0000000000000000e+00 3.0000000000000000e+00
ITEM: ATOMS type x y z c_outsp[1] c_outsp[2] c_outsp[3] fx fy fz
1 0 0 0 0.998228 -0.0495699 0.0329155 0 0 0
1 3 0 0 0.999567 0.000762074 0.0294183 0 0 0
ITEM: TIMESTEP
620
ITEM: NUMBER OF ATOMS
2
ITEM: BOX BOUNDS ff ff ff
0.0000000000000000e+00 6.0000000000000000e+00
0.0000000000000000e+00 3.0000000000000000e+00
0.0000000000000000e+00 3.0000000000000000e+00
ITEM: ATOMS type x y z c_outsp[1] c_outsp[2] c_outsp[3] fx fy fz
1 0 0 0 0.997634 -0.0556769 0.0403191 0 0 0
1 3 0 0 0.999485 0.00731793 0.0312587 0 0 0
ITEM: TIMESTEP
630
ITEM: NUMBER OF ATOMS
2
ITEM: BOX BOUNDS ff ff ff
0.0000000000000000e+00 6.0000000000000000e+00
0.0000000000000000e+00 3.0000000000000000e+00
0.0000000000000000e+00 3.0000000000000000e+00
ITEM: ATOMS type x y z c_outsp[1] c_outsp[2] c_outsp[3] fx fy fz
1 0 0 0 0.998077 -0.0528179 0.0324383 0 0 0
1 3 0 0 0.999732 0.00559983 0.0224846 0 0 0
ITEM: TIMESTEP
640
ITEM: NUMBER OF ATOMS
2
ITEM: BOX BOUNDS ff ff ff
0.0000000000000000e+00 6.0000000000000000e+00
0.0000000000000000e+00 3.0000000000000000e+00
0.0000000000000000e+00 3.0000000000000000e+00
ITEM: ATOMS type x y z c_outsp[1] c_outsp[2] c_outsp[3] fx fy fz
1 0 0 0 0.998092 -0.0538396 0.030215 0 0 0
1 3 0 0 0.999459 0.0149001 0.0293285 0 0 0
ITEM: TIMESTEP
650
ITEM: NUMBER OF ATOMS
2
ITEM: BOX BOUNDS ff ff ff
0.0000000000000000e+00 6.0000000000000000e+00
0.0000000000000000e+00 3.0000000000000000e+00
0.0000000000000000e+00 3.0000000000000000e+00
ITEM: ATOMS type x y z c_outsp[1] c_outsp[2] c_outsp[3] fx fy fz
1 0 0 0 0.997609 -0.0647229 0.0242173 0 0 0
1 3 0 0 0.999378 0.0126328 0.0329243 0 0 0
ITEM: TIMESTEP
660
ITEM: NUMBER OF ATOMS
2
ITEM: BOX BOUNDS ff ff ff
0.0000000000000000e+00 6.0000000000000000e+00
0.0000000000000000e+00 3.0000000000000000e+00
0.0000000000000000e+00 3.0000000000000000e+00
ITEM: ATOMS type x y z c_outsp[1] c_outsp[2] c_outsp[3] fx fy fz
1 0 0 0 0.998158 -0.0601262 0.00808567 0 0 0
1 3 0 0 0.999066 0.00280743 0.0431286 0 0 0
ITEM: TIMESTEP
670
ITEM: NUMBER OF ATOMS
2
ITEM: BOX BOUNDS ff ff ff
0.0000000000000000e+00 6.0000000000000000e+00
0.0000000000000000e+00 3.0000000000000000e+00
0.0000000000000000e+00 3.0000000000000000e+00
ITEM: ATOMS type x y z c_outsp[1] c_outsp[2] c_outsp[3] fx fy fz
1 0 0 0 0.998318 -0.0576787 -0.00582671 0 0 0
1 3 0 0 0.999294 -0.00563139 0.0371352 0 0 0
ITEM: TIMESTEP
680
ITEM: NUMBER OF ATOMS
2
ITEM: BOX BOUNDS ff ff ff
0.0000000000000000e+00 6.0000000000000000e+00
0.0000000000000000e+00 3.0000000000000000e+00
0.0000000000000000e+00 3.0000000000000000e+00
ITEM: ATOMS type x y z c_outsp[1] c_outsp[2] c_outsp[3] fx fy fz
1 0 0 0 0.997841 -0.0653202 -0.00680644 0 0 0
1 3 0 0 0.998796 -0.000516904 0.0490495 0 0 0
ITEM: TIMESTEP
690
ITEM: NUMBER OF ATOMS
2
ITEM: BOX BOUNDS ff ff ff
0.0000000000000000e+00 6.0000000000000000e+00
0.0000000000000000e+00 3.0000000000000000e+00
0.0000000000000000e+00 3.0000000000000000e+00
ITEM: ATOMS type x y z c_outsp[1] c_outsp[2] c_outsp[3] fx fy fz
1 0 0 0 0.997982 -0.063019 -0.00778968 0 0 0
1 3 0 0 0.998559 -0.00243995 0.0536013 0 0 0
ITEM: TIMESTEP
700
ITEM: NUMBER OF ATOMS
2
ITEM: BOX BOUNDS ff ff ff
0.0000000000000000e+00 6.0000000000000000e+00
0.0000000000000000e+00 3.0000000000000000e+00
0.0000000000000000e+00 3.0000000000000000e+00
ITEM: ATOMS type x y z c_outsp[1] c_outsp[2] c_outsp[3] fx fy fz
1 0 0 0 0.997384 -0.0717104 -0.00904492 0 0 0
1 3 0 0 0.998061 -0.0065059 0.0619027 0 0 0
ITEM: TIMESTEP
710
ITEM: NUMBER OF ATOMS
2
ITEM: BOX BOUNDS ff ff ff
0.0000000000000000e+00 6.0000000000000000e+00
0.0000000000000000e+00 3.0000000000000000e+00
0.0000000000000000e+00 3.0000000000000000e+00
ITEM: ATOMS type x y z c_outsp[1] c_outsp[2] c_outsp[3] fx fy fz
1 0 0 0 0.99837 -0.0559242 -0.0114131 0 0 0
1 3 0 0 0.997626 -0.00647829 0.0685582 0 0 0
ITEM: TIMESTEP
720
ITEM: NUMBER OF ATOMS
2
ITEM: BOX BOUNDS ff ff ff
0.0000000000000000e+00 6.0000000000000000e+00
0.0000000000000000e+00 3.0000000000000000e+00
0.0000000000000000e+00 3.0000000000000000e+00
ITEM: ATOMS type x y z c_outsp[1] c_outsp[2] c_outsp[3] fx fy fz
1 0 0 0 0.998898 -0.0452168 -0.0125767 0 0 0
1 3 0 0 0.997662 -0.0100902 0.067592 0 0 0
ITEM: TIMESTEP
730
ITEM: NUMBER OF ATOMS
2
ITEM: BOX BOUNDS ff ff ff
0.0000000000000000e+00 6.0000000000000000e+00
0.0000000000000000e+00 3.0000000000000000e+00
0.0000000000000000e+00 3.0000000000000000e+00
ITEM: ATOMS type x y z c_outsp[1] c_outsp[2] c_outsp[3] fx fy fz
1 0 0 0 0.999435 -0.0307895 -0.0134806 0 0 0
1 3 0 0 0.997901 -0.0195147 0.0617466 0 0 0
ITEM: TIMESTEP
740
ITEM: NUMBER OF ATOMS
2
ITEM: BOX BOUNDS ff ff ff
0.0000000000000000e+00 6.0000000000000000e+00
0.0000000000000000e+00 3.0000000000000000e+00
0.0000000000000000e+00 3.0000000000000000e+00
ITEM: ATOMS type x y z c_outsp[1] c_outsp[2] c_outsp[3] fx fy fz
1 0 0 0 0.999286 -0.0350128 -0.0142292 0 0 0
1 3 0 0 0.9976 -0.0281787 0.0632475 0 0 0
ITEM: TIMESTEP
750
ITEM: NUMBER OF ATOMS
2
ITEM: BOX BOUNDS ff ff ff
0.0000000000000000e+00 6.0000000000000000e+00
0.0000000000000000e+00 3.0000000000000000e+00
0.0000000000000000e+00 3.0000000000000000e+00
ITEM: ATOMS type x y z c_outsp[1] c_outsp[2] c_outsp[3] fx fy fz
1 0 0 0 0.999421 -0.0305127 -0.0150502 0 0 0
1 3 0 0 0.997227 -0.02152 0.0712386 0 0 0
ITEM: TIMESTEP
760
ITEM: NUMBER OF ATOMS
2
ITEM: BOX BOUNDS ff ff ff
0.0000000000000000e+00 6.0000000000000000e+00
0.0000000000000000e+00 3.0000000000000000e+00
0.0000000000000000e+00 3.0000000000000000e+00
ITEM: ATOMS type x y z c_outsp[1] c_outsp[2] c_outsp[3] fx fy fz
1 0 0 0 0.999126 -0.0383959 -0.0165379 0 0 0
1 3 0 0 0.996876 -0.0242629 0.0751616 0 0 0
ITEM: TIMESTEP
770
ITEM: NUMBER OF ATOMS
2
ITEM: BOX BOUNDS ff ff ff
0.0000000000000000e+00 6.0000000000000000e+00
0.0000000000000000e+00 3.0000000000000000e+00
0.0000000000000000e+00 3.0000000000000000e+00
ITEM: ATOMS type x y z c_outsp[1] c_outsp[2] c_outsp[3] fx fy fz
1 0 0 0 0.999196 -0.0376779 -0.0136929 0 0 0
1 3 0 0 0.996615 -0.0386981 0.0725281 0 0 0
ITEM: TIMESTEP
780
ITEM: NUMBER OF ATOMS
2
ITEM: BOX BOUNDS ff ff ff
0.0000000000000000e+00 6.0000000000000000e+00
0.0000000000000000e+00 3.0000000000000000e+00
0.0000000000000000e+00 3.0000000000000000e+00
ITEM: ATOMS type x y z c_outsp[1] c_outsp[2] c_outsp[3] fx fy fz
1 0 0 0 0.999304 -0.0328338 -0.0177004 0 0 0
1 3 0 0 0.996226 -0.0398175 0.0771266 0 0 0
ITEM: TIMESTEP
790
ITEM: NUMBER OF ATOMS
2
ITEM: BOX BOUNDS ff ff ff
0.0000000000000000e+00 6.0000000000000000e+00
0.0000000000000000e+00 3.0000000000000000e+00
0.0000000000000000e+00 3.0000000000000000e+00
ITEM: ATOMS type x y z c_outsp[1] c_outsp[2] c_outsp[3] fx fy fz
1 0 0 0 0.999705 -0.0218692 -0.0105728 0 0 0
1 3 0 0 0.996318 -0.0390136 0.0763435 0 0 0
ITEM: TIMESTEP
800
ITEM: NUMBER OF ATOMS
2
ITEM: BOX BOUNDS ff ff ff
0.0000000000000000e+00 6.0000000000000000e+00
0.0000000000000000e+00 3.0000000000000000e+00
0.0000000000000000e+00 3.0000000000000000e+00
ITEM: ATOMS type x y z c_outsp[1] c_outsp[2] c_outsp[3] fx fy fz
1 0 0 0 0.999933 -0.00133472 -0.0115409 0 0 0
1 3 0 0 0.996855 -0.0428378 0.0666773 0 0 0
ITEM: TIMESTEP
810
ITEM: NUMBER OF ATOMS
2
ITEM: BOX BOUNDS ff ff ff
0.0000000000000000e+00 6.0000000000000000e+00
0.0000000000000000e+00 3.0000000000000000e+00
0.0000000000000000e+00 3.0000000000000000e+00
ITEM: ATOMS type x y z c_outsp[1] c_outsp[2] c_outsp[3] fx fy fz
1 0 0 0 0.999991 -0.00153751 -0.00388362 0 0 0
1 3 0 0 0.99686 -0.0462928 0.0642406 0 0 0
ITEM: TIMESTEP
820
ITEM: NUMBER OF ATOMS
2
ITEM: BOX BOUNDS ff ff ff
0.0000000000000000e+00 6.0000000000000000e+00
0.0000000000000000e+00 3.0000000000000000e+00
0.0000000000000000e+00 3.0000000000000000e+00
ITEM: ATOMS type x y z c_outsp[1] c_outsp[2] c_outsp[3] fx fy fz
1 0 0 0 0.999959 -0.00591725 -0.00681796 0 0 0
1 3 0 0 0.997268 -0.0393418 0.0625249 0 0 0
ITEM: TIMESTEP
830
ITEM: NUMBER OF ATOMS
2
ITEM: BOX BOUNDS ff ff ff
0.0000000000000000e+00 6.0000000000000000e+00