LAMMPS (23 Jun 2022)
#LAMMPS in.run

units           metal
atom_style      spin
# atom_style      spin/kk
atom_modify     map array
boundary        f f f
shell           echo "test1"

atom_modify 	map array
lattice 	sc 3.0
Lattice spacing in x,y,z = 3 3 3
region 		box block 0 2 0 1 0 1
create_box 	1 box
Created orthogonal box = (0 0 0) to (6 3 3)
  1 by 1 by 1 MPI processor grid
create_atoms 	1 box
Created 2 atoms
  using lattice units in orthogonal box = (0 0 0) to (6 3 3)
  create_atoms CPU = 0.001 seconds

mass		1 55.845
set 		atom 1 spin 2.0 1.0 0.0 0.0
Setting atom values ...
  1 settings made for spin
set 		atom 2 spin 2.0 0.0 1.0 0.0
Setting atom values ...
  1 settings made for spin
set             type 1 spin 2.0 1.0 0.0 0.0
Setting atom values ...
  2 settings made for spin

pair_style      spin/exchange 3.1
pair_coeff	* * exchange 3.1 11.254 0.0 1.0

variable        Temperature equal 15.0
variable        RUN equal 60000

fix             1 all nve/spin lattice frozen
fix             2 all langevin/spin ${Temperature} 0.01 12345
fix             2 all langevin/spin 15 0.01 12345

compute		out_mag    all spin
compute		out_pe     all pe

variable	magx      equal c_out_mag[1]
variable	magy      equal c_out_mag[2]
variable	magz      equal c_out_mag[3]
variable	magnorm   equal c_out_mag[4]
variable	emag      equal c_out_mag[5]

thermo_style    custom step time v_magx v_magy v_magz v_emag pe etotal
thermo          10

compute 	outsp all property/atom spx spy spz sp fmx fmy fmz
dump 		1 all custom 10 dump.data type x y z c_outsp[1] c_outsp[2] c_outsp[3] fx fy fz

timestep	0.0001

run             ${RUN}
run             60000

CITE-CITE-CITE-CITE-CITE-CITE-CITE-CITE-CITE-CITE-CITE-CITE-CITE

Your simulation uses code contributions which should be cited:

- fix nve/spin command:

@article{tranchida2018massively,
title={Massively parallel symplectic algorithm for coupled magnetic spin dynamics and molecular dynamics},
author={Tranchida, J and Plimpton, SJ and Thibaudeau, P and Thompson, AP},
journal={Journal of Computational Physics},
volume={372},
pages={406-425},
year={2018},
publisher={Elsevier}
doi={10.1016/j.jcp.2018.06.042}
}

CITE-CITE-CITE-CITE-CITE-CITE-CITE-CITE-CITE-CITE-CITE-CITE-CITE

Generated 0 of 0 mixed pair_coeff terms from geometric mixing rule
Neighbor list info ...
  update every 1 steps, delay 10 steps, check yes
  max neighbors/atom: 2000, page size: 100000
  master list distance cutoff = 5.1
  ghost atom cutoff = 5.1
  binsize = 2.55, bins = 3 2 2
  1 neighbor lists, perpetual/occasional/extra = 1 0 0
  (1) pair spin/exchange, perpetual
      attributes: full, newton on
      pair build: full/bin/atomonly
      stencil: full/bin/3d
      bin: standard
Per MPI rank memory allocation (min/avg/max) = 6.788 | 6.788 | 6.788 Mbytes
   Step          Time          v_magx         v_magy         v_magz         v_emag         PotEng         TotEng    
         0   0              1              0              0             -0.049998742   -0.049998742   -0.049998742  
        10   0.001          0.9999752     -0.0058376055  -0.0014739789  -0.049997406   -0.049997406   -0.049997406  
        20   0.002          0.99998646    -0.0033274545  -0.0034161217  -0.049998307   -0.049998307   -0.049998307  
        30   0.003          0.99998453    -0.0030339173   0.0022121977  -0.049997058   -0.049997058   -0.049997058  
        40   0.004          0.99994406    -0.0071462379   0.0041005738  -0.049994342   -0.049994342   -0.049994342  
        50   0.005          0.99986476    -0.010615159    0.0091546649  -0.049991345   -0.049991345   -0.049991345  
        60   0.006          0.99974499    -0.017521077    0.0073114531  -0.049983791   -0.049983791   -0.049983791  
        70   0.007          0.99974171    -0.017058292    0.0084537984  -0.049983335   -0.049983335   -0.049983335  
        80   0.008          0.99986056    -0.013649817    0.0053265067  -0.049992325   -0.049992325   -0.049992325  
        90   0.009          0.99979756    -0.015720449    0.0036355164  -0.049984293   -0.049984293   -0.049984293  
       100   0.01           0.99987307    -0.013104966    0.0037119975  -0.04999191    -0.04999191    -0.04999191   
       110   0.011          0.99982034    -0.01531612    -0.00025554916 -0.049986277   -0.049986277   -0.049986277  
       120   0.012          0.99966643    -0.018133795    0.0017744026  -0.049965238   -0.049965238   -0.049965238  
       130   0.013          0.99965085    -0.02407526    -0.0012229797  -0.049987036   -0.049987036   -0.049987036  
       140   0.014          0.9994709     -0.02945289     0.00089071665 -0.049979776   -0.049979776   -0.049979776  
       150   0.015          0.99937013    -0.032749305    0.0041281995  -0.049981764   -0.049981764   -0.049981764  
       160   0.016          0.99896388    -0.040346889    0.0076583547  -0.049960278   -0.049960278   -0.049960278  
       170   0.017          0.9990267     -0.037991236    0.0091191018  -0.049956827   -0.049956827   -0.049956827  
       180   0.018          0.99888888    -0.039702598    0.013602274   -0.049952774   -0.049952774   -0.049952774  
       190   0.019          0.9991927     -0.035569365    0.0072393191  -0.049969106   -0.049969106   -0.049969106  
       200   0.02           0.99928213    -0.028810975    0.0075015906  -0.049943854   -0.049943854   -0.049943854  
       210   0.021          0.99925841    -0.031887564    0.013031018   -0.049969142   -0.049969142   -0.049969142  
       220   0.022          0.99937936    -0.029814792    0.014343412   -0.049984119   -0.049984119   -0.049984119  
       230   0.023          0.99926517    -0.033930293    0.013279209   -0.04998459    -0.04998459    -0.04998459   
       240   0.024          0.99942884    -0.024864854    0.012140549   -0.049961109   -0.049961109   -0.049961109  
       250   0.025          0.99923414    -0.033758843    0.011433401   -0.049972667   -0.049972667   -0.049972667  
       260   0.026          0.99939475    -0.03083754     0.0084351464  -0.049979939   -0.049979939   -0.049979939  
       270   0.027          0.99914764    -0.035887426    0.018692843   -0.049992075   -0.049992075   -0.049992075  
       280   0.028          0.9989682     -0.038767506    0.017080051   -0.049971953   -0.049971953   -0.049971953  
       290   0.029          0.99894473    -0.038395556    0.018131452   -0.049968097   -0.049968097   -0.049968097  
       300   0.03           0.99881854    -0.038400351    0.023514117   -0.049965341   -0.049965341   -0.049965341  
       310   0.031          0.998626      -0.044863597    0.021080913   -0.049969846   -0.049969846   -0.049969846  
       320   0.032          0.99867411    -0.037820503    0.027053161   -0.049949966   -0.049949966   -0.049949966  
       330   0.033          0.99858957    -0.043132252    0.024083707   -0.049960898   -0.049960898   -0.049960898  
       340   0.034          0.99879209    -0.03756329     0.024786187   -0.049959841   -0.049959841   -0.049959841  
       350   0.035          0.99848603    -0.043652389    0.025803617   -0.049953314   -0.049953314   -0.049953314  
       360   0.036          0.99843467    -0.045892978    0.022794816   -0.049948499   -0.049948499   -0.049948499  
       370   0.037          0.9982818     -0.050621676    0.021190457   -0.049956557   -0.049956557   -0.049956557  
       380   0.038          0.99846533    -0.047648747    0.024023497   -0.049976797   -0.049976797   -0.049976797  
       390   0.039          0.99900448    -0.03572392     0.02249848    -0.049977975   -0.049977975   -0.049977975  
       400   0.04           0.99912771    -0.029520651    0.022136345   -0.049960509   -0.049960509   -0.049960509  
       410   0.041          0.9986567     -0.04130042     0.025523296   -0.049965979   -0.049965979   -0.049965979  
       420   0.042          0.99872382    -0.036730133    0.028183129   -0.049958008   -0.049958008   -0.049958008  
       430   0.043          0.99906444    -0.034690734    0.021261865   -0.049977268   -0.049977268   -0.049977268  
       440   0.044          0.99914333    -0.03124089     0.022959689   -0.049977796   -0.049977796   -0.049977796  
       450   0.045          0.99928682    -0.025736777    0.019462727   -0.049960275   -0.049960275   -0.049960275  
       460   0.046          0.9992498     -0.022948874    0.023799887   -0.049958067   -0.049958067   -0.049958067  
       470   0.047          0.99917528    -0.025131404    0.024248376   -0.049955824   -0.049955824   -0.049955824  
       480   0.048          0.99907435    -0.02703923     0.02822068    -0.04996645    -0.04996645    -0.04996645   
       490   0.049          0.99915455    -0.024838466    0.030245175   -0.049982896   -0.049982896   -0.049982896  
       500   0.05           0.99872699    -0.032391359    0.035309849   -0.049973902   -0.049973902   -0.049973902  
       510   0.051          0.99892326    -0.034105287    0.027050376   -0.049973001   -0.049973001   -0.049973001  
       520   0.052          0.99906986    -0.029904666    0.027678437   -0.049978839   -0.049978839   -0.049978839  
       530   0.053          0.99909438    -0.026475904    0.031291422   -0.049985714   -0.049985714   -0.049985714  
       540   0.054          0.99926842    -0.02372505     0.028307908   -0.049988901   -0.049988901   -0.049988901  
       550   0.055          0.99931632    -0.025925851    0.024327345   -0.049988449   -0.049988449   -0.049988449  
       560   0.056          0.99903929    -0.025057914    0.034766728   -0.049990355   -0.049990355   -0.049990355  
       570   0.057          0.99897589    -0.032062606    0.029767653   -0.049985437   -0.049985437   -0.049985437  
       580   0.058          0.99896473    -0.029011231    0.03115386    -0.049973016   -0.049973016   -0.049973016  
       590   0.059          0.99870004    -0.027300219    0.036625821   -0.049947594   -0.049947594   -0.049947594  
       600   0.06           0.99871868    -0.024870028    0.034895807   -0.049926268   -0.049926268   -0.049926268  
       610   0.061          0.99889751    -0.024403936    0.031166914   -0.04993506    -0.04993506    -0.04993506   
       620   0.062          0.99855948    -0.024179485    0.035788865   -0.049897398   -0.049897398   -0.049897398  
       630   0.063          0.99890433    -0.023609045    0.027461461   -0.049910883   -0.049910883   -0.049910883  
       640   0.064          0.99877556    -0.019469789    0.029771733   -0.04988055    -0.04988055    -0.04988055   
       650   0.065          0.99849369    -0.026045046    0.028570807   -0.049847175   -0.049847175   -0.049847175  
       660   0.066          0.99861181    -0.028659362    0.025607133   -0.049869008   -0.049869008   -0.049869008  
       670   0.067          0.99880629    -0.031655039    0.015654251   -0.049884855   -0.049884855   -0.049884855  
       680   0.068          0.99831868    -0.03291857     0.021121534   -0.049815739   -0.049815739   -0.049815739  
       690   0.069          0.99827068    -0.032729461    0.022905814   -0.049812771   -0.049812771   -0.049812771  
       700   0.07           0.99772273    -0.039108171    0.026428874   -0.049766606   -0.049766606   -0.049766606  
       710   0.071          0.99799793    -0.031201261    0.028572561   -0.049777725   -0.049777725   -0.049777725  
       720   0.072          0.99828002    -0.027653502    0.027507686   -0.049807186   -0.049807186   -0.049807186  
       730   0.073          0.99866802    -0.025152083    0.024133031   -0.04985403    -0.04985403    -0.04985403   
       740   0.074          0.99844277    -0.031595786    0.024509118   -0.049847441   -0.049847441   -0.049847441  
       750   0.075          0.9983241     -0.026016343    0.028094194   -0.04981046    -0.04981046    -0.04981046   
       760   0.076          0.99800094    -0.031329421    0.029311824   -0.049783407   -0.049783407   -0.049783407  
       770   0.077          0.99790573    -0.038188008    0.029417596   -0.049812702   -0.049812702   -0.049812702  
       780   0.078          0.99776499    -0.036325627    0.029713141   -0.049772487   -0.049772487   -0.049772487  
       790   0.079          0.99801148    -0.030441392    0.032885351   -0.049802251   -0.049802251   -0.049802251  
       800   0.08           0.99839355    -0.022086264    0.027568232   -0.049802495   -0.049802495   -0.049802495  
       810   0.081          0.99842571    -0.023915138    0.030178474   -0.049832402   -0.049832402   -0.049832402  
       820   0.082          0.99861347    -0.022629508    0.027853481   -0.049850423   -0.049850423   -0.049850423  
       830   0.083          0.99881088    -0.022051542    0.026720606   -0.049881088   -0.049881088   -0.049881088  
       840   0.084          0.99918932    -0.020679644    0.026181377   -0.049947984   -0.049947984   -0.049947984  
       850   0.085          0.9989722     -0.022372536    0.035111265   -0.049966621   -0.049966621   -0.049966621  
       860   0.086          0.99921444    -0.016602681    0.034711369   -0.049989744   -0.049989744   -0.049989744  
       870   0.087          0.99934467    -0.017918691    0.030058983   -0.04999018    -0.04999018    -0.04999018   
       880   0.088          0.99923261    -0.021708857    0.031954001   -0.049994556   -0.049994556   -0.049994556  
       890   0.089          0.99896839    -0.03121768     0.03226155    -0.049994062   -0.049994062   -0.049994062  
       900   0.09           0.99892307    -0.033668326    0.031305091   -0.049994828   -0.049994828   -0.049994828  
       910   0.091          0.99872312    -0.040932876    0.02923646    -0.049996556   -0.049996556   -0.049996556  
       920   0.092          0.99877219    -0.042940342    0.021565816   -0.049984226   -0.049984226   -0.049984226  
       930   0.093          0.99868157    -0.042320111    0.024582847   -0.049974761   -0.049974761   -0.049974761  
       940   0.094          0.99896242    -0.034976456    0.023835452   -0.049970482   -0.049970482   -0.049970482  
       950   0.095          0.99913755    -0.034896678    0.017000675   -0.049977006   -0.049977006   -0.049977006  
       960   0.096          0.99896486    -0.035754339    0.021221503   -0.049964694   -0.049964694   -0.049964694  
       970   0.097          0.99869313    -0.041484516    0.022955004   -0.049962328   -0.049962328   -0.049962328  
       980   0.098          0.9987874     -0.040510153    0.020413663   -0.049962148   -0.049962148   -0.049962148  
       990   0.099          0.99890518    -0.035804963    0.019850875   -0.049947505   -0.049947505   -0.049947505  
      1000   0.1            0.9981674     -0.045334877    0.032864242   -0.04994609    -0.04994609    -0.04994609   
      1010   0.101          0.99768693    -0.053812176    0.03243053    -0.049931414   -0.049931414   -0.049931414  
      1020   0.102          0.99783321    -0.047642557    0.039007113   -0.049944991   -0.049944991   -0.049944991  
      1030   0.103          0.99763433    -0.050711201    0.034634937   -0.04990329    -0.04990329    -0.04990329   
      1040   0.104          0.99784049    -0.051871948    0.032298949   -0.049940701   -0.049940701   -0.049940701  
      1050   0.105          0.99801469    -0.049878828    0.03102076    -0.049947094   -0.049947094   -0.049947094  
      1060   0.106          0.99830559    -0.050493599    0.02503423    -0.04997778    -0.04997778    -0.04997778   
      1070   0.107          0.99848523    -0.045354368    0.028289766   -0.04998175    -0.04998175    -0.04998175   
      1080   0.108          0.99847212    -0.047499019    0.026017439   -0.049986706   -0.049986706   -0.049986706  
      1090   0.109          0.99833569    -0.049823019    0.025691573   -0.049980396   -0.049980396   -0.049980396  
      1100   0.11           0.99849508    -0.046868888    0.027157272   -0.049991406   -0.049991406   -0.049991406  
      1110   0.111          0.99846098    -0.048222394    0.02322207    -0.049977641   -0.049977641   -0.049977641  
      1120   0.112          0.99814976    -0.052056136    0.025671736   -0.049965925   -0.049965925   -0.049965925  
      1130   0.113          0.99834191    -0.045590177    0.029724529   -0.0499636     -0.0499636     -0.0499636    
      1140   0.114          0.99854713    -0.042635223    0.028241553   -0.049969914   -0.049969914   -0.049969914  
      1150   0.115          0.99840026    -0.045197032    0.029017065   -0.049967526   -0.049967526   -0.049967526  
      1160   0.116          0.99849683    -0.043097865    0.028923984   -0.049967736   -0.049967736   -0.049967736  
      1170   0.117          0.99844269    -0.041187847    0.03168156    -0.049957539   -0.049957539   -0.049957539  
      1180   0.118          0.99845701    -0.045765038    0.02585382    -0.049966669   -0.049966669   -0.049966669  
      1190   0.119          0.9985109     -0.04519212     0.02497129    -0.049967733   -0.049967733   -0.049967733  
      1200   0.12           0.99864123    -0.038151653    0.030623348   -0.049966506   -0.049966506   -0.049966506  
      1210   0.121          0.99836108    -0.035371452    0.039687061   -0.049953847   -0.049953847   -0.049953847  
      1220   0.122          0.99812849    -0.036319246    0.043950268   -0.049949863   -0.049949863   -0.049949863  
      1230   0.123          0.99775838    -0.042816009    0.040237289   -0.049896147   -0.049896147   -0.049896147  
      1240   0.124          0.99761278    -0.043740405    0.041273159   -0.04988354    -0.04988354    -0.04988354   
      1250   0.125          0.99791143    -0.042347209    0.036794307   -0.049896178   -0.049896178   -0.049896178  
      1260   0.126          0.99761179    -0.043273146    0.038319646   -0.04985577    -0.04985577    -0.04985577   
      1270   0.127          0.9970493     -0.044100989    0.050940713   -0.049863461   -0.049863461   -0.049863461  
      1280   0.128          0.99615266    -0.047538165    0.05801803    -0.049793356   -0.049793356   -0.049793356  
      1290   0.129          0.99605323    -0.055921722    0.052294274   -0.049797143   -0.049797143   -0.049797143  
      1300   0.13           0.99567675    -0.057859297    0.051966776   -0.049740792   -0.049740792   -0.049740792  
      1310   0.131          0.9945739     -0.064370423    0.05822688    -0.049669867   -0.049669867   -0.049669867  
      1320   0.132          0.99413938    -0.070616564    0.06144176    -0.049706239   -0.049706239   -0.049706239  
      1330   0.133          0.99425938    -0.069830198    0.058224691   -0.049680558   -0.049680558   -0.049680558  
      1340   0.134          0.99420211    -0.06929734     0.057979147   -0.049658905   -0.049658905   -0.049658905  
      1350   0.135          0.99356968    -0.06975684     0.059330544   -0.049555436   -0.049555436   -0.049555436  
      1360   0.136          0.99307638    -0.074432928    0.059857418   -0.04953114    -0.04953114    -0.04953114   
      1370   0.137          0.99182998    -0.084410044    0.069490475   -0.049566822   -0.049566822   -0.049566822  
      1380   0.138          0.99210681    -0.082601338    0.060565829   -0.049475467   -0.049475467   -0.049475467  
      1390   0.139          0.99268856    -0.080751203    0.060285157   -0.049557317   -0.049557317   -0.049557317  
      1400   0.14           0.9920391     -0.079534794    0.067266047   -0.049497963   -0.049497963   -0.049497963  
      1410   0.141          0.99186568    -0.084605144    0.064288008   -0.049507605   -0.049507605   -0.049507605  
      1420   0.142          0.9918044     -0.086955038    0.058223126   -0.049461464   -0.049461464   -0.049461464  
      1430   0.143          0.99234227    -0.079063079    0.056455704   -0.049416897   -0.049416897   -0.049416897  
      1440   0.144          0.99148126    -0.079512444    0.059086183   -0.049283609   -0.049283609   -0.049283609  
      1450   0.145          0.99098944    -0.083300524    0.061154217   -0.049272649   -0.049272649   -0.049272649  
      1460   0.146          0.99108051    -0.077509594    0.06177553    -0.049205215   -0.049205215   -0.049205215  
      1470   0.147          0.99128818    -0.077556892    0.059180514   -0.049215727   -0.049215727   -0.049215727  
      1480   0.148          0.99092146    -0.081378531    0.059232582   -0.049204392   -0.049204392   -0.049204392  
      1490   0.149          0.99019303    -0.087477076    0.063067852   -0.049209965   -0.049209965   -0.049209965  
      1500   0.15           0.98950203    -0.0924139      0.065047156   -0.049187335   -0.049187335   -0.049187335  
      1510   0.151          0.98884547    -0.092003976    0.066733988   -0.049072116   -0.049072116   -0.049072116  
      1520   0.152          0.98785311    -0.096415549    0.072849274   -0.04904444    -0.04904444    -0.04904444   
      1530   0.153          0.98704895    -0.099017076    0.077976108   -0.049013795   -0.049013795   -0.049013795  
      1540   0.154          0.98715664    -0.1012752      0.075840623   -0.049047434   -0.049047434   -0.049047434  
      1550   0.155          0.98755098    -0.10069841     0.080343296   -0.049183977   -0.049183977   -0.049183977  
      1560   0.156          0.98706365    -0.10215825     0.075971397   -0.049049027   -0.049049027   -0.049049027  
      1570   0.157          0.98698633    -0.10286286     0.075759057   -0.049044987   -0.049044987   -0.049044987  
      1580   0.158          0.98677334    -0.10745032     0.063136766   -0.048924113   -0.048924113   -0.048924113  
      1590   0.159          0.98673422    -0.10386047     0.069969453   -0.048931482   -0.048931482   -0.048931482  
      1600   0.16           0.98702656    -0.10704441     0.067569949   -0.04902333    -0.04902333    -0.04902333   
      1610   0.161          0.98746397    -0.099371322    0.066879004   -0.048942023   -0.048942023   -0.048942023  
      1620   0.162          0.98769451    -0.10517931     0.055428172   -0.04896631    -0.04896631    -0.04896631   
      1630   0.163          0.98695075    -0.10781782     0.057453118   -0.048898503   -0.048898503   -0.048898503  
      1640   0.164          0.98811916    -0.10229056     0.053403076   -0.04896824    -0.04896824    -0.04896824   
      1650   0.165          0.98797356    -0.10516774     0.052428316   -0.048988842   -0.048988842   -0.048988842  
      1660   0.166          0.98874028    -0.1028461      0.050073205   -0.049067964   -0.049067964   -0.049067964  
      1670   0.167          0.9890958     -0.099580136    0.050230401   -0.049073745   -0.049073745   -0.049073745  
      1680   0.168          0.98930876    -0.095006507    0.052218406   -0.049047248   -0.049047248   -0.049047248  
      1690   0.169          0.98869534    -0.10205019     0.05548736    -0.049099921   -0.049099921   -0.049099921  
      1700   0.17           0.98778723    -0.10805788     0.059448294   -0.049092185   -0.049092185   -0.049092185  
      1710   0.171          0.98740567    -0.11431451     0.064829584   -0.049222825   -0.049222825   -0.049222825  
      1720   0.172          0.98781359    -0.11427443     0.060351821   -0.049246429   -0.049246429   -0.049246429  
      1730   0.173          0.98818218    -0.11128163     0.057937215   -0.049223195   -0.049223195   -0.049223195  
      1740   0.174          0.98862469    -0.10956069     0.056308613   -0.049254058   -0.049254058   -0.049254058  
      1750   0.175          0.98841591    -0.10482486     0.061992225   -0.049178492   -0.049178492   -0.049178492  
      1760   0.176          0.98796006    -0.11112017     0.057566174   -0.049171427   -0.049171427   -0.049171427  
      1770   0.177          0.98802834    -0.11123067     0.059721397   -0.049212652   -0.049212652   -0.049212652  
      1780   0.178          0.98872771    -0.11292513     0.056285245   -0.049349018   -0.049349018   -0.049349018  
      1790   0.179          0.9879873     -0.11780739     0.058117408   -0.04933627    -0.04933627    -0.04933627   
      1800   0.18           0.98775192    -0.11593044     0.062080517   -0.04929353    -0.04929353    -0.04929353   
      1810   0.181          0.98714415    -0.12025034     0.069421084   -0.049372058   -0.049372058   -0.049372058  
      1820   0.182          0.98656117    -0.11589785     0.077371396   -0.049270918   -0.049270918   -0.049270918  
      1830   0.183          0.98646198    -0.11550652     0.077796645   -0.049248891   -0.049248891   -0.049248891  
      1840   0.184          0.98645279    -0.11635099     0.078127558   -0.049271816   -0.049271816   -0.049271816  
      1850   0.185          0.9848796     -0.12199503     0.085318748   -0.049213752   -0.049213752   -0.049213752  
      1860   0.186          0.98544553    -0.11574738     0.084273127   -0.049158994   -0.049158994   -0.049158994  
      1870   0.187          0.98527112    -0.11879154     0.085075275   -0.049209603   -0.049209603   -0.049209603  
      1880   0.188          0.98586274    -0.12130303     0.077686867   -0.049266262   -0.049266262   -0.049266262  
      1890   0.189          0.98516745    -0.12566438     0.076715383   -0.049221931   -0.049221931   -0.049221931  
      1900   0.19           0.98605318    -0.12976152     0.070631901   -0.049411535   -0.049411535   -0.049411535  
      1910   0.191          0.98568007    -0.13493977     0.061185547   -0.049350519   -0.049350519   -0.049350519  
      1920   0.192          0.9854721     -0.13704575     0.061903846   -0.049375646   -0.049375646   -0.049375646  
      1930   0.193          0.98508843    -0.13696052     0.064386099   -0.049329055   -0.049329055   -0.049329055  
      1940   0.194          0.98594299    -0.13316158     0.062115174   -0.049366146   -0.049366146   -0.049366146  
      1950   0.195          0.98619527    -0.1338072      0.060802726   -0.049417002   -0.049417002   -0.049417002  
      1960   0.196          0.98648273    -0.13287364     0.057998851   -0.0494155     -0.0494155     -0.0494155    
      1970   0.197          0.98687975    -0.12928864     0.062386622   -0.049452684   -0.049452684   -0.049452684  
      1980   0.198          0.98815413    -0.12267146     0.060181059   -0.049510617   -0.049510617   -0.049510617  
      1990   0.199          0.98761171    -0.1223175      0.067932076   -0.049494077   -0.049494077   -0.049494077  
      2000   0.2            0.98766272    -0.11686684     0.069304895   -0.049392625   -0.049392625   -0.049392625  
      2010   0.201          0.9875387     -0.12011131     0.064699208   -0.049383296   -0.049383296   -0.049383296  
      2020   0.202          0.98768294    -0.11663696     0.058270504   -0.049250484   -0.049250484   -0.049250484  
      2030   0.203          0.98669775    -0.12391734     0.05843831    -0.049233059   -0.049233059   -0.049233059  
      2040   0.204          0.98704571    -0.12474507     0.055377711   -0.049287486   -0.049287486   -0.049287486  
      2050   0.205          0.98718956    -0.12558806     0.052140416   -0.04930218    -0.04930218    -0.04930218   
      2060   0.206          0.986928      -0.12486616     0.051854173   -0.049229491   -0.049229491   -0.049229491  
      2070   0.207          0.98601124    -0.12948944     0.054439723   -0.049193699   -0.049193699   -0.049193699  
      2080   0.208          0.98656061    -0.12637974     0.052754263   -0.049204431   -0.049204431   -0.049204431  
      2090   0.209          0.98591643    -0.13227687     0.04929037    -0.049194554   -0.049194554   -0.049194554  
      2100   0.21           0.9850765     -0.13277922     0.050351585   -0.049052896   -0.049052896   -0.049052896  
      2110   0.211          0.98797956    -0.12155497     0.046924405   -0.049306871   -0.049306871   -0.049306871  
      2120   0.212          0.98733707    -0.12342919     0.058131767   -0.049343614   -0.049343614   -0.049343614  
      2130   0.213          0.98749984    -0.12191353     0.055046601   -0.049303656   -0.049303656   -0.049303656  
      2140   0.214          0.98797292    -0.11742029     0.054437225   -0.049282902   -0.049282902   -0.049282902  
      2150   0.215          0.98725934    -0.1202476      0.054985112   -0.049215146   -0.049215146   -0.049215146  
      2160   0.216          0.98640252    -0.13376863     0.04365774    -0.049277757   -0.049277757   -0.049277757  
      2170   0.217          0.98551861    -0.13539577     0.049645291   -0.049203121   -0.049203121   -0.049203121  
      2180   0.218          0.98588474    -0.13496035     0.052159007   -0.049289118   -0.049289118   -0.049289118  
      2190   0.219          0.98483611    -0.14333351     0.052054177   -0.049314389   -0.049314389   -0.049314389  
      2200   0.22           0.98454027    -0.14482071     0.042838176   -0.049211531   -0.049211531   -0.049211531  
      2210   0.221          0.98490054    -0.143021       0.041103679   -0.04921612    -0.04921612    -0.04921612   
      2220   0.222          0.98431598    -0.1434009      0.042553023   -0.049124016   -0.049124016   -0.049124016  
      2230   0.223          0.9840945     -0.14809772     0.03113114    -0.049133169   -0.049133169   -0.049133169  
      2240   0.224          0.98457988    -0.14894481     0.024707619   -0.049218018   -0.049218018   -0.049218018  
      2250   0.225          0.98435769    -0.1478989      0.028374926   -0.04916269    -0.04916269    -0.04916269   
      2260   0.226          0.98446267    -0.14494319     0.029090147   -0.049100915   -0.049100915   -0.049100915  
      2270   0.227          0.98381896    -0.14759306     0.030283528   -0.049058821   -0.049058821   -0.049058821  
      2280   0.228          0.98478982    -0.14333885     0.020771751   -0.049077614   -0.049077614   -0.049077614  
      2290   0.229          0.98360381    -0.14883468     0.018781221   -0.048996861   -0.048996861   -0.048996861  
      2300   0.23           0.98340651    -0.14858261     0.027740105   -0.048992233   -0.048992233   -0.048992233  
      2310   0.231          0.98355561    -0.14100585     0.038170992   -0.0488709     -0.0488709     -0.0488709    
      2320   0.232          0.98292741    -0.14557506     0.034668494   -0.048852799   -0.048852799   -0.048852799  
      2330   0.233          0.98206699    -0.14085135     0.03694521    -0.048564741   -0.048564741   -0.048564741  
      2340   0.234          0.98194641    -0.14064361     0.038706712   -0.048548537   -0.048548537   -0.048548537  
      2350   0.235          0.98300159    -0.13849592     0.034407255   -0.048664486   -0.048664486   -0.048664486  
      2360   0.236          0.98317444    -0.13787005     0.035015489   -0.048685396   -0.048685396   -0.048685396  
      2370   0.237          0.98231669    -0.14313766     0.040633667   -0.048707331   -0.048707331   -0.048707331  
      2380   0.238          0.98280832    -0.1415724      0.03520949    -0.048718238   -0.048718238   -0.048718238  
      2390   0.239          0.98018464    -0.15238229     0.036468646   -0.048530003   -0.048530003   -0.048530003  
      2400   0.24           0.98077307    -0.14782431     0.036250785   -0.048506976   -0.048506976   -0.048506976  
      2410   0.241          0.98054704    -0.14223695     0.03802443    -0.048313754   -0.048313754   -0.048313754  
      2420   0.242          0.97991769    -0.14408225     0.041097008   -0.048267518   -0.048267518   -0.048267518  
      2430   0.243          0.98029385    -0.1479763      0.029768115   -0.048374698   -0.048374698   -0.048374698  
      2440   0.244          0.979305      -0.15405716     0.026555173   -0.048346491   -0.048346491   -0.048346491  
      2450   0.245          0.97936186    -0.15028316     0.022052161   -0.048220885   -0.048220885   -0.048220885  
      2460   0.246          0.97926336    -0.15060606     0.022449037   -0.048213073   -0.048213073   -0.048213073  
      2470   0.247          0.97849215    -0.14898109     0.021813791   -0.048010601   -0.048010601   -0.048010601  
      2480   0.248          0.97887174    -0.14388826     0.022649291   -0.047939465   -0.047939465   -0.047939465  
      2490   0.249          0.97880868    -0.1447215      0.02558962    -0.04796535    -0.04796535    -0.04796535   
      2500   0.25           0.97748919    -0.14699316     0.031232404   -0.047805554   -0.047805554   -0.047805554  
      2510   0.251          0.97603265    -0.15283624     0.031664404   -0.047698927   -0.047698927   -0.047698927  
      2520   0.252          0.97604324    -0.15051422     0.030478858   -0.047623191   -0.047623191   -0.047623191  
      2530   0.253          0.97594336    -0.15102651     0.028694735   -0.047608586   -0.047608586   -0.047608586  
      2540   0.254          0.97666908    -0.14594989     0.022181401   -0.047566391   -0.047566391   -0.047566391  
      2550   0.255          0.97634829    -0.14195579     0.024676691   -0.047400444   -0.047400444   -0.047400444  
      2560   0.256          0.97549972    -0.14598005     0.023076276   -0.047343048   -0.047343048   -0.047343048  
      2570   0.257          0.97455188    -0.1477343      0.029666662   -0.0472445     -0.0472445     -0.0472445    
      2580   0.258          0.97632662    -0.14662211     0.028735599   -0.047552548   -0.047552548   -0.047552548  
      2590   0.259          0.97694724    -0.14491808     0.032625385   -0.047647958   -0.047647958   -0.047647958  
      2600   0.26           0.97933884    -0.13841464     0.032439347   -0.047930343   -0.047930343   -0.047930343  
      2610   0.261          0.97951456    -0.13749297     0.028519645   -0.047915441   -0.047915441   -0.047915441  
      2620   0.262          0.97833311    -0.13440184     0.034848374   -0.047640194   -0.047640194   -0.047640194  
      2630   0.263          0.9775361     -0.14036258     0.031320297   -0.047624745   -0.047624745   -0.047624745  
      2640   0.264          0.97925542    -0.13921509     0.043887251   -0.048023602   -0.048023602   -0.048023602  
      2650   0.265          0.97892523    -0.13815273     0.039052837   -0.047889386   -0.047889386   -0.047889386  
      2660   0.266          0.97906137    -0.13574486     0.042493911   -0.047878151   -0.047878151   -0.047878151  
      2670   0.267          0.97944945    -0.13890502     0.046874005   -0.048080091   -0.048080091   -0.048080091  
      2680   0.268          0.97937292    -0.13977096     0.049404409   -0.048113593   -0.048113593   -0.048113593  
      2690   0.269          0.98013106    -0.1359077      0.048561169   -0.048147387   -0.048147387   -0.048147387  
      2700   0.27           0.98122764    -0.12872806     0.045977101   -0.048148036   -0.048148036   -0.048148036  
      2710   0.271          0.9815574     -0.12608362     0.040520732   -0.048098184   -0.048098184   -0.048098184  
      2720   0.272          0.98149534    -0.13059645     0.038479742   -0.048185709   -0.048185709   -0.048185709  
      2730   0.273          0.98235529    -0.12741045     0.036216899   -0.048255485   -0.048255485   -0.048255485  
      2740   0.274          0.98187918    -0.12908884     0.03990104    -0.048233061   -0.048233061   -0.048233061  
      2750   0.275          0.98242095    -0.12756304     0.040187242   -0.048302611   -0.048302611   -0.048302611  
      2760   0.276          0.98220253    -0.12576858     0.048411848   -0.04828711    -0.04828711    -0.04828711   
      2770   0.277          0.98410662    -0.11964735     0.04982452    -0.048525161   -0.048525161   -0.048525161  
      2780   0.278          0.98335011    -0.12245862     0.044559123   -0.048394689   -0.048394689   -0.048394689  
      2790   0.279          0.98284698    -0.12814597     0.047679658   -0.048467072   -0.048467072   -0.048467072  
      2800   0.28           0.98240947    -0.12945374     0.044115886   -0.048382068   -0.048382068   -0.048382068  
      2810   0.281          0.9812758     -0.13315014     0.039987662   -0.048221803   -0.048221803   -0.048221803  
      2820   0.282          0.98104338    -0.13201286     0.04253825    -0.04816709    -0.04816709    -0.04816709   
      2830   0.283          0.98108705    -0.13054737     0.040009266   -0.048116304   -0.048116304   -0.048116304  
      2840   0.284          0.98113969    -0.1336208      0.034753699   -0.048168531   -0.048168531   -0.048168531  
      2850   0.285          0.97925762    -0.13418267     0.038646832   -0.0478432     -0.0478432     -0.0478432    
      2860   0.286          0.97883704    -0.13211564     0.035758668   -0.047684318   -0.047684318   -0.047684318  
      2870   0.287          0.9787068     -0.12749176     0.041661968   -0.04758449    -0.04758449    -0.04758449   
      2880   0.288          0.9787792     -0.12839157     0.037708842   -0.04759031    -0.04759031    -0.04759031   
      2890   0.289          0.97914622    -0.13366736     0.032659982   -0.047764894   -0.047764894   -0.047764894  
      2900   0.29           0.9779924     -0.13170164     0.022649888   -0.047431553   -0.047431553   -0.047431553  
      2910   0.291          0.97855108    -0.12244598     0.018426997   -0.047288288   -0.047288288   -0.047288288  
      2920   0.292          0.97763988    -0.12168731     0.017779955   -0.047089181   -0.047089181   -0.047089181  
      2930   0.293          0.97609411    -0.13110109     0.017368117   -0.047023703   -0.047023703   -0.047023703  
      2940   0.294          0.97593033    -0.13793997     0.02325951    -0.047199658   -0.047199658   -0.047199658  
      2950   0.295          0.97596407    -0.13461857     0.025240155   -0.047125324   -0.047125324   -0.047125324  
      2960   0.296          0.97848371    -0.12443499     0.035582978   -0.047416864   -0.047416864   -0.047416864  
      2970   0.297          0.97752423    -0.12732083     0.038581508   -0.047324085   -0.047324085   -0.047324085  
      2980   0.298          0.97750768    -0.1257365      0.03710963    -0.047269616   -0.047269616   -0.047269616  
      2990   0.299          0.97712595    -0.1278184      0.032298358   -0.047214397   -0.047214397   -0.047214397  
      3000   0.3            0.977094      -0.12314767     0.030350608   -0.047078734   -0.047078734   -0.047078734  
      3010   0.301          0.97766181    -0.11962833     0.033704806   -0.04712577    -0.04712577    -0.04712577   
      3020   0.302          0.97818368    -0.11997511     0.035384727   -0.047247752   -0.047247752   -0.047247752  
      3030   0.303          0.97838605    -0.11700972     0.037439738   -0.047232038   -0.047232038   -0.047232038  
      3040   0.304          0.97974195    -0.11609918     0.0370963     -0.047473749   -0.047473749   -0.047473749  
      3050   0.305          0.97836948    -0.11581428     0.039243994   -0.047214799   -0.047214799   -0.047214799  
      3060   0.306          0.97905386    -0.10969146     0.044475608   -0.047254486   -0.047254486   -0.047254486  
      3070   0.307          0.98042883    -0.11163617     0.037780838   -0.047511875   -0.047511875   -0.047511875  
      3080   0.308          0.98164521    -0.11223425     0.035397192   -0.047746479   -0.047746479   -0.047746479  
      3090   0.309          0.9820794     -0.11063567     0.042653788   -0.04785275    -0.04785275    -0.04785275   
      3100   0.31           0.98192352    -0.11122268     0.04291945    -0.047837432   -0.047837432   -0.047837432  
      3110   0.311          0.98348533    -0.11180001     0.044154622   -0.048168014   -0.048168014   -0.048168014  
      3120   0.312          0.98334456    -0.11454861     0.039621789   -0.048164568   -0.048164568   -0.048164568  
      3130   0.313          0.98367818    -0.10887463     0.045351959   -0.048152112   -0.048152112   -0.048152112  
      3140   0.314          0.9835018     -0.10731046     0.039482491   -0.048033811   -0.048033811   -0.048033811  
      3150   0.315          0.98314822    -0.10249452     0.044796456   -0.047908021   -0.047908021   -0.047908021  
      3160   0.316          0.98290272    -0.10035851     0.040864165   -0.047782745   -0.047782745   -0.047782745  
      3170   0.317          0.98265015    -0.10510716     0.043864652   -0.047856089   -0.047856089   -0.047856089  
      3180   0.318          0.98311662    -0.10613816     0.040969097   -0.047945      -0.047945      -0.047945     
      3190   0.319          0.98350277    -0.10384235     0.038523429   -0.047953291   -0.047953291   -0.047953291  
      3200   0.32           0.98405296    -0.10551579     0.041889538   -0.048123643   -0.048123643   -0.048123643  
      3210   0.321          0.98260549    -0.10942653     0.049935976   -0.047996923   -0.047996923   -0.047996923  
      3220   0.322          0.98162975    -0.11427114     0.053803827   -0.047953764   -0.047953764   -0.047953764  
      3230   0.323          0.98332956    -0.11646212     0.052223144   -0.048321555   -0.048321555   -0.048321555  
      3240   0.324          0.98356361    -0.11787007     0.052724382   -0.048405841   -0.048405841   -0.048405841  
      3250   0.325          0.98303271    -0.11940976     0.057550598   -0.04839119    -0.04839119    -0.04839119   
      3260   0.326          0.98302194    -0.11949363     0.048679824   -0.048296844   -0.048296844   -0.048296844  
      3270   0.327          0.98067576    -0.12524571     0.05402954    -0.048031854   -0.048031854   -0.048031854  
      3280   0.328          0.97983679    -0.12520774     0.049771487   -0.047822228   -0.047822228   -0.047822228  
      3290   0.329          0.98114988    -0.12038796     0.047549214   -0.047939721   -0.047939721   -0.047939721  
      3300   0.33           0.98096797    -0.12296163     0.052161027   -0.04801264    -0.04801264    -0.04801264   
      3310   0.331          0.97983709    -0.13100191     0.048926062   -0.047962391   -0.047962391   -0.047962391  
      3320   0.332          0.98219843    -0.12458455     0.033770538   -0.04813634    -0.04813634    -0.04813634   
      3330   0.333          0.98079127    -0.12751743     0.038655318   -0.047969438   -0.047969438   -0.047969438  
      3340   0.334          0.98011741    -0.1287599      0.045326786   -0.047925171   -0.047925171   -0.047925171  
      3350   0.335          0.97921069    -0.13035674     0.04087351    -0.047750508   -0.047750508   -0.047750508  
      3360   0.336          0.97871072    -0.13043953     0.034466359   -0.047606509   -0.047606509   -0.047606509  
      3370   0.337          0.97823053    -0.13179581     0.037439977   -0.047569489   -0.047569489   -0.047569489  
      3380   0.338          0.97735223    -0.13856888     0.03933801    -0.047595422   -0.047595422   -0.047595422  
      3390   0.339          0.97678008    -0.1401911      0.038892936   -0.047525356   -0.047525356   -0.047525356  
      3400   0.34           0.97677523    -0.14205207     0.036159291   -0.047556417   -0.047556417   -0.047556417  
      3410   0.341          0.97719416    -0.14144109     0.030402538   -0.047582634   -0.047582634   -0.047582634  
      3420   0.342          0.97740316    -0.14774888     0.032429033   -0.047818627   -0.047818627   -0.047818627  
      3430   0.343          0.97744493    -0.14870654     0.031289845   -0.047847923   -0.047847923   -0.047847923  
      3440   0.344          0.97803481    -0.14293881     0.031225837   -0.047794661   -0.047794661   -0.047794661  
      3450   0.345          0.97919443    -0.138554       0.031961852   -0.047902844   -0.047902844   -0.047902844  
      3460   0.346          0.98030722    -0.13752559     0.026951671   -0.048062983   -0.048062983   -0.048062983  
      3470   0.347          0.98020181    -0.13672034     0.025450048   -0.048012366   -0.048012366   -0.048012366  
      3480   0.348          0.97908124    -0.13823512     0.021847694   -0.047817431   -0.047817431   -0.047817431  
      3490   0.349          0.97883023    -0.13882616     0.023386228   -0.047791621   -0.047791621   -0.047791621  
      3500   0.35           0.97808597    -0.14501521     0.02759691    -0.047843112   -0.047843112   -0.047843112  
      3510   0.351          0.97615685    -0.15093875     0.033363615   -0.047676584   -0.047676584   -0.047676584  
      3520   0.352          0.97752892    -0.14736226     0.031328136   -0.047824784   -0.047824784   -0.047824784  
      3530   0.353          0.97769827    -0.14763014     0.028445832   -0.047848569   -0.047848569   -0.047848569  
      3540   0.354          0.97735387    -0.14613916     0.02762581    -0.047732842   -0.047732842   -0.047732842  
      3550   0.355          0.97744968    -0.14049127     0.030738465   -0.047607854   -0.047607854   -0.047607854  
      3560   0.356          0.97645178    -0.14989706     0.027966591   -0.047669734   -0.047669734   -0.047669734  
      3570   0.357          0.97474862    -0.15596501     0.024623676   -0.047505434   -0.047505434   -0.047505434  
      3580   0.358          0.97389581    -0.16094454     0.031427217   -0.047535191   -0.047535191   -0.047535191  
      3590   0.359          0.97317503    -0.16012        0.031487206   -0.047368758   -0.047368758   -0.047368758  
      3600   0.36           0.97249804    -0.16055467     0.027507955   -0.047227504   -0.047227504   -0.047227504  
      3610   0.361          0.97172275    -0.16913494     0.017825917   -0.047315758   -0.047315758   -0.047315758  
      3620   0.362          0.97263052    -0.15973737     0.02953319    -0.047238647   -0.047238647   -0.047238647  
      3630   0.363          0.97308759    -0.16272513     0.030476555   -0.047429581   -0.047429581   -0.047429581  
      3640   0.364          0.97237339    -0.16554047     0.021142897   -0.047334877   -0.047334877   -0.047334877  
      3650   0.365          0.97314136    -0.16504385     0.02469677    -0.047484157   -0.047484157   -0.047484157  
      3660   0.366          0.97357249    -0.16031718     0.029302795   -0.04743917    -0.04743917    -0.04743917   
      3670   0.367          0.97197447    -0.16247078     0.032627126   -0.047218377   -0.047218377   -0.047218377  
      3680   0.368          0.97208844    -0.16243716     0.032879965   -0.047241096   -0.047241096   -0.047241096  
      3690   0.369          0.97466107    -0.15978895     0.030140997   -0.04763932    -0.04763932    -0.04763932   
      3700   0.37           0.9742273     -0.16075207     0.032155028   -0.047598202   -0.047598202   -0.047598202  
      3710   0.371          0.97296022    -0.17217465     0.024627235   -0.04768902    -0.04768902    -0.04768902   
      3720   0.372          0.97161312    -0.17396629     0.030443975   -0.047521121   -0.047521121   -0.047521121  
      3730   0.373          0.97235392    -0.17147816     0.027186854   -0.047560406   -0.047560406   -0.047560406  
      3740   0.374          0.97348868    -0.16681518     0.037049969   -0.047686821   -0.047686821   -0.047686821  
      3750   0.375          0.97352047    -0.16635676     0.026562898   -0.047611027   -0.047611027   -0.047611027  
      3760   0.376          0.97302719    -0.16890991     0.030668981   -0.047624106   -0.047624106   -0.047624106  
      3770   0.377          0.97606008    -0.16431518     0.030356941   -0.04806022    -0.04806022    -0.04806022   
      3780   0.378          0.97661893    -0.16297456     0.031062835   -0.048129802   -0.048129802   -0.048129802  
      3790   0.379          0.97687039    -0.15955455     0.035957934   -0.048101427   -0.048101427   -0.048101427  
      3800   0.38           0.97722328    -0.16619416     0.032589053   -0.048363571   -0.048363571   -0.048363571  
      3810   0.381          0.97734152    -0.16671216     0.034228992   -0.048414882   -0.048414882   -0.048414882  
      3820   0.382          0.97790898    -0.16340257     0.033927798   -0.048414528   -0.048414528   -0.048414528  
      3830   0.383          0.97820745    -0.16534802     0.035460499   -0.048547502   -0.048547502   -0.048547502  
      3840   0.384          0.97732787    -0.16763349     0.036079367   -0.048456028   -0.048456028   -0.048456028  
      3850   0.385          0.97806569    -0.16383206     0.038341495   -0.048491131   -0.048491131   -0.048491131  
      3860   0.386          0.97799744    -0.1657023      0.032688886   -0.048499261   -0.048499261   -0.048499261  
      3870   0.387          0.9784475     -0.16128075     0.035510531   -0.04846198    -0.04846198    -0.04846198   
      3880   0.388          0.97678138    -0.16641463     0.032995469   -0.048287224   -0.048287224   -0.048287224  
      3890   0.389          0.97605709    -0.169743       0.032005197   -0.048251233   -0.048251233   -0.048251233  
      3900   0.39           0.97656521    -0.16873518     0.031093803   -0.048310585   -0.048310585   -0.048310585  
      3910   0.391          0.97683097    -0.16897149     0.028112606   -0.048352825   -0.048352825   -0.048352825  
      3920   0.392          0.97712134    -0.16577535     0.022979315   -0.048276347   -0.048276347   -0.048276347  
      3930   0.393          0.97618281    -0.16905308     0.022176759   -0.048199149   -0.048199149   -0.048199149  
      3940   0.394          0.97787296    -0.16539811     0.022689041   -0.048409466   -0.048409466   -0.048409466  
      3950   0.395          0.97792372    -0.16580173     0.01964328    -0.048419869   -0.048419869   -0.048419869  
      3960   0.396          0.97669609    -0.16819289     0.019119815   -0.048257753   -0.048257753   -0.048257753  
      3970   0.397          0.97674046    -0.16951638     0.019561948   -0.048312824   -0.048312824   -0.048312824  
      3980   0.398          0.97895716    -0.16037561     0.02124058    -0.048451643   -0.048451643   -0.048451643  
      3990   0.399          0.97860796    -0.1629204      0.030214236   -0.048511729   -0.048511729   -0.048511729  
      4000   0.4            0.97829402    -0.16355973     0.029780632   -0.048468566   -0.048468566   -0.048468566  
      4010   0.401          0.97920253    -0.15589377     0.02787073    -0.048390506   -0.048390506   -0.048390506  
      4020   0.402          0.97877315    -0.16084838     0.024795658   -0.048447172   -0.048447172   -0.048447172  
      4030   0.403          0.97847025    -0.16529502     0.021875074   -0.048519277   -0.048519277   -0.048519277  
      4040   0.404          0.97850633    -0.16181736     0.021427748   -0.048410646   -0.048410646   -0.048410646  
      4050   0.405          0.9776371     -0.16561019     0.022457251   -0.048369318   -0.048369318   -0.048369318  
      4060   0.406          0.97683105    -0.16336464     0.032833414   -0.048195281   -0.048195281   -0.048195281  
      4070   0.407          0.97673003    -0.16280722     0.033971829   -0.048164971   -0.048164971   -0.048164971  
      4080   0.408          0.97732987    -0.16234147     0.038861455   -0.048302648   -0.048302648   -0.048302648  
      4090   0.409          0.9780749     -0.15340014     0.043892417   -0.048207653   -0.048207653   -0.048207653  
      4100   0.41           0.97762167    -0.148994       0.042463547   -0.047973443   -0.047973443   -0.047973443  
      4110   0.411          0.97853707    -0.13844686     0.047000271   -0.04788993    -0.04788993    -0.04788993   
      4120   0.412          0.97904272    -0.13132349     0.043843485   -0.047768074   -0.047768074   -0.047768074  
      4130   0.413          0.97889916    -0.12678844     0.041756233   -0.047605048   -0.047605048   -0.047605048  
      4140   0.414          0.97949362    -0.12676302     0.044389681   -0.047743505   -0.047743505   -0.047743505  
      4150   0.415          0.98045158    -0.11921788     0.041113753   -0.047717654   -0.047717654   -0.047717654  
      4160   0.416          0.97934626    -0.125627       0.043754033   -0.047680367   -0.047680367   -0.047680367  
      4170   0.417          0.98026122    -0.11952487     0.04399329    -0.047712165   -0.047712165   -0.047712165  
      4180   0.418          0.98000098    -0.11924399     0.041552604   -0.047633567   -0.047633567   -0.047633567  
      4190   0.419          0.97800601    -0.12352696     0.034118631   -0.047290684   -0.047290684   -0.047290684  
      4200   0.42           0.97819956    -0.12419462     0.032563718   -0.047334717   -0.047334717   -0.047334717  
      4210   0.421          0.98026632    -0.11221698     0.025797844   -0.047416831   -0.047416831   -0.047416831  
      4220   0.422          0.98079088    -0.11452167     0.024297456   -0.047564437   -0.047564437   -0.047564437  
      4230   0.423          0.97964035    -0.11552901     0.022034124   -0.047351576   -0.047351576   -0.047351576  
      4240   0.424          0.98081879    -0.10871243     0.014506673   -0.047402241   -0.047402241   -0.047402241  
      4250   0.425          0.98079353    -0.10456682     0.012523096   -0.047303509   -0.047303509   -0.047303509  
      4260   0.426          0.98259786    -0.10573462     0.01461338    -0.047687992   -0.047687992   -0.047687992  
      4270   0.427          0.98371161    -0.10311653     0.014049208   -0.047850689   -0.047850689   -0.047850689  
      4280   0.428          0.98447216    -0.10137814     0.011546839   -0.047958423   -0.047958423   -0.047958423  
      4290   0.429          0.98333398    -0.10030335     0.0055796502  -0.047702561   -0.047702561   -0.047702561  
      4300   0.43           0.98402026    -0.099827629    0.011094614   -0.047837247   -0.047837247   -0.047837247  
      4310   0.431          0.98332267    -0.1033641      0.010667144   -0.047770938   -0.047770938   -0.047770938  
      4320   0.432          0.98353623    -0.10047841     0.014244893   -0.047763032   -0.047763032   -0.047763032  
      4330   0.433          0.98405335    -0.094111305    0.020607166   -0.047763057   -0.047763057   -0.047763057  
      4340   0.434          0.98453973    -0.092819431    0.026522243   -0.047862532   -0.047862532   -0.047862532  
      4350   0.435          0.98334055    -0.097737192    0.030038026   -0.047740147   -0.047740147   -0.047740147  
      4360   0.436          0.98393971    -0.10081754     0.025832269   -0.047895679   -0.047895679   -0.047895679  
      4370   0.437          0.98356697    -0.1000523      0.025441237   -0.047804968   -0.047804968   -0.047804968  
      4380   0.438          0.98287918    -0.11234665     0.018876972   -0.047901754   -0.047901754   -0.047901754  
      4390   0.439          0.98374255    -0.10705837     0.015294577   -0.047943276   -0.047943276   -0.047943276  
      4400   0.44           0.98509866    -0.10280893     0.018167809   -0.048130701   -0.048130701   -0.048130701  
      4410   0.441          0.98597839    -0.10134084     0.019122436   -0.048277687   -0.048277687   -0.048277687  
      4420   0.442          0.98603808    -0.10586383     0.017759983   -0.048378149   -0.048378149   -0.048378149  
      4430   0.443          0.98466581    -0.11346213     0.014617054   -0.048264192   -0.048264192   -0.048264192  
      4440   0.444          0.98608117    -0.10820532     0.016093928   -0.04843113    -0.04843113    -0.04843113   
      4450   0.445          0.98582133    -0.10956493     0.0077816326  -0.048389653   -0.048389653   -0.048389653  
      4460   0.446          0.9863808     -0.11190804     0.0027002606  -0.048546556   -0.048546556   -0.048546556  
      4470   0.447          0.98678035    -0.10958217     0.0059838055  -0.04857673    -0.04857673    -0.04857673   
      4480   0.448          0.98602749    -0.11425088     0.0090874023  -0.048537385   -0.048537385   -0.048537385  
      4490   0.449          0.98516871    -0.11475189     0.007939344   -0.048377624   -0.048377624   -0.048377624  
      4500   0.45           0.98438535    -0.11888267     0.013675547   -0.048332247   -0.048332247   -0.048332247  
      4510   0.451          0.98482887    -0.11830978     0.013016101   -0.048404235   -0.048404235   -0.048404235  
      4520   0.452          0.98558676    -0.11294495     0.012139182   -0.048427299   -0.048427299   -0.048427299  
      4530   0.453          0.98582766    -0.11772559     0.015876402   -0.048595532   -0.048595532   -0.048595532  
      4540   0.454          0.98515915    -0.12100672     0.015156798   -0.048539868   -0.048539868   -0.048539868  
      4550   0.455          0.98439659    -0.1261243      0.018253653   -0.048526498   -0.048526498   -0.048526498  
      4560   0.456          0.98558356    -0.12085236     0.020969304   -0.048640772   -0.048640772   -0.048640772  
      4570   0.457          0.98472549    -0.12749138     0.015330893   -0.048616114   -0.048616114   -0.048616114  
      4580   0.458          0.98556763    -0.12407003     0.016066801   -0.048698282   -0.048698282   -0.048698282  
      4590   0.459          0.9867148     -0.11537467     0.013757234   -0.048709441   -0.048709441   -0.048709441  
      4600   0.46           0.98588789    -0.11439827     0.013493335   -0.048523175   -0.048523175   -0.048523175  
      4610   0.461          0.98598994    -0.11178104     0.013939225   -0.048485327   -0.048485327   -0.048485327  
      4620   0.462          0.98568814    -0.11391864     0.012541033   -0.048470364   -0.048470364   -0.048470364  
      4630   0.463          0.98476437    -0.11328517     0.014083349   -0.048278059   -0.048278059   -0.048278059  
      4640   0.464          0.98418288    -0.10889027     0.019869904   -0.048085574   -0.048085574   -0.048085574  
      4650   0.465          0.98444328    -0.10325251     0.015290624   -0.048001137   -0.048001137   -0.048001137  
      4660   0.466          0.98437411    -0.10161413     0.015435646   -0.047954401   -0.047954401   -0.047954401  
      4670   0.467          0.98447616    -0.10333318     0.017536882   -0.048016652   -0.048016652   -0.048016652  
      4680   0.468          0.98483464    -0.099151271    0.018988154   -0.048007872   -0.048007872   -0.048007872  
      4690   0.469          0.98519843    -0.10137394     0.017819862   -0.048119805   -0.048119805   -0.048119805  
      4700   0.47           0.98557476    -0.10111197     0.012545813   -0.048172651   -0.048172651   -0.048172651  
      4710   0.471          0.98569853    -0.10226406     0.013996698   -0.048224329   -0.048224329   -0.048224329  
      4720   0.472          0.98630448    -0.10209129     0.0094815664  -0.048329689   -0.048329689   -0.048329689  
      4730   0.473          0.98564779    -0.097909537    0.017667758   -0.048138788   -0.048138788   -0.048138788  
      4740   0.474          0.98595643    -0.097264453    0.018872768   -0.048191452   -0.048191452   -0.048191452  
      4750   0.475          0.98540411    -0.10245742     0.024279923   -0.048209617   -0.048209617   -0.048209617  
      4760   0.476          0.98559708    -0.10270751     0.025836604   -0.048260582   -0.048260582   -0.048260582  
      4770   0.477          0.98598116    -0.10213531     0.021678785   -0.048304828   -0.048304828   -0.048304828  
      4780   0.478          0.98551989    -0.10398545     0.025169725   -0.04826838    -0.04826838    -0.04826838   
      4790   0.479          0.98545967    -0.11202926     0.028578337   -0.048448584   -0.048448584   -0.048448584  
      4800   0.48           0.98540087    -0.11481685     0.03198446    -0.048520858   -0.048520858   -0.048520858  
      4810   0.481          0.98570453    -0.11096346     0.033442993   -0.048503253   -0.048503253   -0.048503253  
      4820   0.482          0.98629157    -0.10793528     0.037574172   -0.048582069   -0.048582069   -0.048582069  
      4830   0.483          0.98639172    -0.10886187     0.033472445   -0.048592772   -0.048592772   -0.048592772  
      4840   0.484          0.98672906    -0.10522053     0.039467063   -0.048625102   -0.048625102   -0.048625102  
      4850   0.485          0.98768219    -0.10365704     0.040632208   -0.048789959   -0.048789959   -0.048789959  
      4860   0.486          0.98751673    -0.10256492     0.045069371   -0.048772783   -0.048772783   -0.048772783  
      4870   0.487          0.98735313    -0.10748394     0.044218085   -0.048836195   -0.048836195   -0.048836195  
      4880   0.488          0.9869435     -0.10685046     0.045258932   -0.048751059   -0.048751059   -0.048751059  
      4890   0.489          0.98681803    -0.10700936     0.044328448   -0.048721358   -0.048721358   -0.048721358  
      4900   0.49           0.98688046    -0.10629639     0.035511038   -0.048648076   -0.048648076   -0.048648076  
      4910   0.491          0.98724329    -0.10285988     0.036274737   -0.048653309   -0.048653309   -0.048653309  
      4920   0.492          0.98661713    -0.10512578     0.03442195    -0.048563744   -0.048563744   -0.048563744  
      4930   0.493          0.9870385     -0.10221159     0.027495896   -0.048543601   -0.048543601   -0.048543601  
      4940   0.494          0.98644906    -0.10564509     0.024705918   -0.048484081   -0.048484081   -0.048484081  
      4950   0.495          0.98548176    -0.10706886     0.031979452   -0.048364855   -0.048364855   -0.048364855  
      4960   0.496          0.9869966     -0.099275682    0.03723461    -0.048539214   -0.048539214   -0.048539214  
      4970   0.497          0.9877708     -0.090677533    0.040428      -0.048553577   -0.048553577   -0.048553577  
      4980   0.498          0.98691384    -0.094385165    0.042510036   -0.04847024    -0.04847024    -0.04847024   
      4990   0.499          0.98598469    -0.09819653     0.053592076   -0.048466828   -0.048466828   -0.048466828  
      5000   0.5            0.9855435     -0.10767431     0.05512222    -0.048591597   -0.048591597   -0.048591597  
      5010   0.501          0.9847932     -0.10853415     0.054212085   -0.048452406   -0.048452406   -0.048452406  
      5020   0.502          0.98312408    -0.11346318     0.054677789   -0.048238437   -0.048238437   -0.048238437  
      5030   0.503          0.98352379    -0.11157533     0.051709489   -0.048242984   -0.048242984   -0.048242984  
      5040   0.504          0.98417805    -0.11175905     0.055619352   -0.048417784   -0.048417784   -0.048417784  
      5050   0.505          0.98352221    -0.11519118     0.055354663   -0.048363692   -0.048363692   -0.048363692  
      5060   0.506          0.98269315    -0.11150502     0.061012733   -0.048182962   -0.048182962   -0.048182962  
      5070   0.507          0.9826823     -0.11398799     0.060075264   -0.048225467   -0.048225467   -0.048225467  
      5080   0.508          0.9840624     -0.11382143     0.059477814   -0.048485953   -0.048485953   -0.048485953  
      5090   0.509          0.98558161    -0.10894749     0.060770795   -0.04869215    -0.04869215    -0.04869215   
      5100   0.51           0.98567779    -0.10844741     0.05872161    -0.048675752   -0.048675752   -0.048675752  
      5110   0.511          0.98475375    -0.1080572      0.070225708   -0.048633572   -0.048633572   -0.048633572  
      5120   0.512          0.98491482    -0.1074297      0.06786562    -0.048619185   -0.048619185   -0.048619185  
      5130   0.513          0.9845012     -0.11148956     0.069103378   -0.048643557   -0.048643557   -0.048643557  
      5140   0.514          0.98407092    -0.11344919     0.073426959   -0.048664556   -0.048664556   -0.048664556  
      5150   0.515          0.98429571    -0.11460853     0.065746134   -0.048628348   -0.048628348   -0.048628348  
      5160   0.516          0.98282666    -0.12174052     0.071485905   -0.0485867     -0.0485867     -0.0485867    
      5170   0.517          0.98201918    -0.13117287     0.071538942   -0.048667356   -0.048667356   -0.048667356  
      5180   0.518          0.98090837    -0.13462997     0.083485112   -0.048726396   -0.048726396   -0.048726396  
      5190   0.519          0.98035629    -0.13653741     0.07953295    -0.048605419   -0.048605419   -0.048605419  
      5200   0.52           0.98061672    -0.13383878     0.078647834   -0.048569522   -0.048569522   -0.048569522  
      5210   0.521          0.98174389    -0.1355102      0.077495934   -0.048817741   -0.048817741   -0.048817741  
      5220   0.522          0.98067934    -0.14464805     0.076282142   -0.048846171   -0.048846171   -0.048846171  
      5230   0.523          0.97988439    -0.14468553     0.087276442   -0.048871219   -0.048871219   -0.048871219  
      5240   0.524          0.98108357    -0.13999557     0.077694219   -0.048814784   -0.048814784   -0.048814784  
      5250   0.525          0.97875605    -0.1490218      0.077699173   -0.048619582   -0.048619582   -0.048619582  
      5260   0.526          0.97694798    -0.15754607     0.078854758   -0.048545397   -0.048545397   -0.048545397  
      5270   0.527          0.97912868    -0.15124862     0.073677954   -0.048698531   -0.048698531   -0.048698531  
      5280   0.528          0.97877678    -0.15894408     0.067615373   -0.048782676   -0.048782676   -0.048782676  
      5290   0.529          0.97792881    -0.16697342     0.064092258   -0.048832041   -0.048832041   -0.048832041  
      5300   0.53           0.97837938    -0.16762712     0.059674478   -0.048887379   -0.048887379   -0.048887379  
      5310   0.531          0.97893777    -0.16880832     0.054971101   -0.048982491   -0.048982491   -0.048982491  
      5320   0.532          0.97960492    -0.15835306     0.059588019   -0.048823994   -0.048823994   -0.048823994  
      5330   0.533          0.97884315    -0.15889341     0.057908156   -0.048672214   -0.048672214   -0.048672214  
      5340   0.534          0.97828025    -0.16011365     0.061509164   -0.048643977   -0.048643977   -0.048643977  
      5350   0.535          0.97856232    -0.16085804     0.062385591   -0.048733922   -0.048733922   -0.048733922  
      5360   0.536          0.97677125    -0.16976188     0.063012783   -0.048685953   -0.048685953   -0.048685953  
      5370   0.537          0.97691196    -0.17733522     0.056017115   -0.048893036   -0.048893036   -0.048893036  
      5380   0.538          0.97590255    -0.18083964     0.062003648   -0.048892092   -0.048892092   -0.048892092  
      5390   0.539          0.97643816    -0.1813279      0.054401564   -0.04892585    -0.04892585    -0.04892585   
      5400   0.54           0.97797386    -0.17633891     0.049719671   -0.048998799   -0.048998799   -0.048998799  
      5410   0.541          0.97733692    -0.17930542     0.051487379   -0.048997651   -0.048997651   -0.048997651  
      5420   0.542          0.97763273    -0.17888797     0.050154911   -0.049026983   -0.049026983   -0.049026983  
      5430   0.543          0.97610127    -0.18420619     0.055908926   -0.048981909   -0.048981909   -0.048981909  
      5440   0.544          0.97667723    -0.18136925     0.059227262   -0.049028875   -0.049028875   -0.049028875  
      5450   0.545          0.97581027    -0.18048351     0.064681928   -0.048895143   -0.048895143   -0.048895143  
      5460   0.546          0.97693477    -0.17654734     0.068183649   -0.049020719   -0.049020719   -0.049020719  
      5470   0.547          0.97739755    -0.17614152     0.072493081   -0.049157467   -0.049157467   -0.049157467  
      5480   0.548          0.97821095    -0.17589783     0.070538424   -0.049279997   -0.049279997   -0.049279997  
      5490   0.549          0.97868464    -0.17607031     0.067044469   -0.049330692   -0.049330692   -0.049330692  
      5500   0.55           0.97950722    -0.17350485     0.068082235   -0.049416108   -0.049416108   -0.049416108  
      5510   0.551          0.97829567    -0.18429718     0.06137362    -0.049478215   -0.049478215   -0.049478215  
      5520   0.552          0.97827965    -0.18344884     0.068143144   -0.049531558   -0.049531558   -0.049531558  
      5530   0.553          0.9769051     -0.18959471     0.067503766   -0.049483404   -0.049483404   -0.049483404  
      5540   0.554          0.97710768    -0.19155365     0.059929083   -0.049501125   -0.049501125   -0.049501125  
      5550   0.555          0.97880632    -0.18490462     0.057531163   -0.049554889   -0.049554889   -0.049554889  
      5560   0.556          0.97776494    -0.19019037     0.064644298   -0.049636304   -0.049636304   -0.049636304  
      5570   0.557          0.97798897    -0.18911168     0.068639385   -0.04969245    -0.04969245    -0.04969245   
      5580   0.558          0.97703414    -0.19266673     0.0727292     -0.04969932    -0.04969932    -0.04969932   
      5590   0.559          0.97826483    -0.18858627     0.072902452   -0.04978691    -0.04978691    -0.04978691   
      5600   0.56           0.97820797    -0.18638204     0.077403169   -0.049760782   -0.049760782   -0.049760782  
      5610   0.561          0.97781316    -0.18949427     0.077991377   -0.049809678   -0.049809678   -0.049809678  
      5620   0.562          0.97842373    -0.19138421     0.06987009    -0.049881018   -0.049881018   -0.049881018  
      5630   0.563          0.97830864    -0.19171087     0.068866341   -0.049857087   -0.049857087   -0.049857087  
      5640   0.564          0.97736344    -0.19736989     0.070208597   -0.049911085   -0.049911085   -0.049911085  
      5650   0.565          0.97631695    -0.20166903     0.071554988   -0.049897274   -0.049897274   -0.049897274  
      5660   0.566          0.975144      -0.20522085     0.076053983   -0.049879307   -0.049879307   -0.049879307  
      5670   0.567          0.97460506    -0.20720338     0.078626092   -0.049895778   -0.049895778   -0.049895778  
      5680   0.568          0.9750529     -0.20310507     0.084817957   -0.049916135   -0.049916135   -0.049916135  
      5690   0.569          0.97601082    -0.20141948     0.07885111    -0.049937185   -0.049937185   -0.049937185  
      5700   0.57           0.97585494    -0.20173273     0.079248357   -0.04992567    -0.04992567    -0.04992567   
      5710   0.571          0.97221283    -0.21668702     0.082851486   -0.049900287   -0.049900287   -0.049900287  
      5720   0.572          0.97398953    -0.21000434     0.079245568   -0.049902473   -0.049902473   -0.049902473  
      5730   0.573          0.97305543    -0.21059755     0.086211835   -0.049860813   -0.049860813   -0.049860813  
      5740   0.574          0.97208875    -0.21409922     0.087954953   -0.049851854   -0.049851854   -0.049851854  
      5750   0.575          0.97198223    -0.21541419     0.08726765    -0.049875582   -0.049875582   -0.049875582  
      5760   0.576          0.9716658     -0.21641845     0.086860606   -0.049850359   -0.049850359   -0.049850359  
      5770   0.577          0.9725257     -0.21596478     0.079014827   -0.049867782   -0.049867782   -0.049867782  
      5780   0.578          0.97339618    -0.21141579     0.08237707    -0.049897018   -0.049897018   -0.049897018  
      5790   0.579          0.97367032    -0.21038772     0.083660791   -0.049928344   -0.049928344   -0.049928344  
      5800   0.58           0.97350192    -0.21325354     0.077855338   -0.049923195   -0.049923195   -0.049923195  
      5810   0.581          0.97352125    -0.21290267     0.079004683   -0.049930035   -0.049930035   -0.049930035  
      5820   0.582          0.97400986    -0.20930396     0.080289497   -0.04989372    -0.04989372    -0.04989372   
      5830   0.583          0.97390248    -0.21128513     0.076155006   -0.049891448   -0.049891448   -0.049891448  
      5840   0.584          0.97581943    -0.20380371     0.072999171   -0.049907583   -0.049907583   -0.049907583  
      5850   0.585          0.97482459    -0.21046109     0.068255258   -0.049922306   -0.049922306   -0.049922306  
      5860   0.586          0.97494665    -0.21072038     0.064223673   -0.049903617   -0.049903617   -0.049903617  
      5870   0.587          0.97535559    -0.20962955     0.059854149   -0.049883303   -0.049883303   -0.049883303  
      5880   0.588          0.97611947    -0.20459904     0.063723095   -0.049871807   -0.049871807   -0.049871807  
      5890   0.589          0.97612936    -0.2059894      0.058579047   -0.049867912   -0.049867912   -0.049867912  
      5900   0.59           0.97469602    -0.20934874     0.063453722   -0.049787306   -0.049787306   -0.049787306  
      5910   0.591          0.9759338     -0.20599409     0.053319361   -0.049771077   -0.049771077   -0.049771077  
      5920   0.592          0.97463357    -0.21183947     0.055334122   -0.049783589   -0.049783589   -0.049783589  
      5930   0.593          0.97276754    -0.2203676      0.048857701   -0.049721313   -0.049721313   -0.049721313  
      5940   0.594          0.97295236    -0.22258912     0.042387099   -0.049796635   -0.049796635   -0.049796635  
      5950   0.595          0.97225088    -0.22424238     0.048689377   -0.049791455   -0.049791455   -0.049791455  
      5960   0.596          0.97445348    -0.213965       0.051930223   -0.049802481   -0.049802481   -0.049802481  
      5970   0.597          0.9747267     -0.21159633     0.057450994   -0.049815322   -0.049815322   -0.049815322  
      5980   0.598          0.97476367    -0.21010089     0.05796591    -0.049765413   -0.049765413   -0.049765413  
      5990   0.599          0.97438785    -0.21315847     0.05293502    -0.04976578    -0.04976578    -0.04976578   
      6000   0.6            0.97678062    -0.20269114     0.054233726   -0.049811283   -0.049811283   -0.049811283  
      6010   0.601          0.97561946    -0.20933894     0.049887514   -0.049813235   -0.049813235   -0.049813235  
      6020   0.602          0.97657361    -0.2057179      0.047823381   -0.04982904    -0.04982904    -0.04982904   
      6030   0.603          0.97606299    -0.20501992     0.053601093   -0.049759268   -0.049759268   -0.049759268  
      6040   0.604          0.976156      -0.20502607     0.053406371   -0.049775594   -0.049775594   -0.049775594  
      6050   0.605          0.97458868    -0.21215877     0.050763687   -0.049739888   -0.049739888   -0.049739888  
      6060   0.606          0.97390389    -0.21225933     0.056761598   -0.049675218   -0.049675218   -0.049675218  
      6070   0.607          0.97231639    -0.21791138     0.057232739   -0.049614763   -0.049614763   -0.049614763  
      6080   0.608          0.97256501    -0.2173432      0.054410402   -0.049606877   -0.049606877   -0.049606877  
      6090   0.609          0.97252128    -0.2200932      0.050625989   -0.049678914   -0.049678914   -0.049678914  
      6100   0.61           0.97353483    -0.21240032     0.053500127   -0.049573375   -0.049573375   -0.049573375  
      6110   0.611          0.97485348    -0.20667031     0.050969962   -0.049563739   -0.049563739   -0.049563739  
      6120   0.612          0.97694518    -0.19636437     0.057162581   -0.049623593   -0.049623593   -0.049623593  
      6130   0.613          0.97697059    -0.19394144     0.058785344   -0.049552806   -0.049552806   -0.049552806  
      6140   0.614          0.97795195    -0.18869064     0.058123766   -0.049536009   -0.049536009   -0.049536009  
      6150   0.615          0.97865749    -0.18356649     0.060481857   -0.049511273   -0.049511273   -0.049511273  
      6160   0.616          0.97734764    -0.19066257     0.061941663   -0.049538493   -0.049538493   -0.049538493  
      6170   0.617          0.97588952    -0.19783787     0.06164148    -0.049528738   -0.049528738   -0.049528738  
      6180   0.618          0.97676217    -0.19443168     0.061489836   -0.049563654   -0.049563654   -0.049563654  
      6190   0.619          0.97847865    -0.1866025      0.061453954   -0.049600506   -0.049600506   -0.049600506  
      6200   0.62           0.97851959    -0.18498408     0.061815925   -0.049552843   -0.049552843   -0.049552843  
      6210   0.621          0.9799929     -0.17652289     0.063044898   -0.049550861   -0.049550861   -0.049550861  
      6220   0.622          0.97961888    -0.17947693     0.062870715   -0.049580536   -0.049580536   -0.049580536  
      6230   0.623          0.98064998    -0.17656933     0.062697106   -0.049676954   -0.049676954   -0.049676954  
      6240   0.624          0.98168103    -0.17260867     0.057953218   -0.049683746   -0.049683746   -0.049683746  
      6250   0.625          0.98200708    -0.170889       0.059815384   -0.049710633   -0.049710633   -0.049710633  
      6260   0.626          0.9805345     -0.1766773      0.068301615   -0.049731537   -0.049731537   -0.049731537  
      6270   0.627          0.98174682    -0.17226343     0.061705404   -0.049729655   -0.049729655   -0.049729655  
      6280   0.628          0.98138518    -0.17527145     0.060356528   -0.049746734   -0.049746734   -0.049746734  
      6290   0.629          0.9822441     -0.17145125     0.057160579   -0.049745381   -0.049745381   -0.049745381  
      6300   0.63           0.98177802    -0.17222084     0.063669368   -0.049758937   -0.049758937   -0.049758937  
      6310   0.631          0.98248996    -0.16835753     0.066052944   -0.049798124   -0.049798124   -0.049798124  
      6320   0.632          0.98077872    -0.1785378      0.064405215   -0.049793815   -0.049793815   -0.049793815  
      6330   0.633          0.97962861    -0.18689952     0.059221458   -0.04980983    -0.04980983    -0.04980983   
      6340   0.634          0.97789879    -0.19384958     0.061376781   -0.049761829   -0.049761829   -0.049761829  
      6350   0.635          0.97749522    -0.19634487     0.056533636   -0.049723176   -0.049723176   -0.049723176  
      6360   0.636          0.97807379    -0.19301919     0.059457855   -0.049740746   -0.049740746   -0.049740746  
      6370   0.637          0.97736475    -0.19733988     0.060874135   -0.049787801   -0.049787801   -0.049787801  
      6380   0.638          0.97743537    -0.19865648     0.056211503   -0.049799149   -0.049799149   -0.049799149  
      6390   0.639          0.97780605    -0.19682377     0.055345368   -0.049789485   -0.049789485   -0.049789485  
      6400   0.64           0.97695987    -0.19992401     0.061737426   -0.049821917   -0.049821917   -0.049821917  
      6410   0.641          0.97649597    -0.20232096     0.062066213   -0.049831783   -0.049831783   -0.049831783  
      6420   0.642          0.97710146    -0.19958129     0.063400186   -0.049856699   -0.049856699   -0.049856699  
      6430   0.643          0.97588453    -0.20558818     0.062493284   -0.049850998   -0.049850998   -0.049850998  
      6440   0.644          0.97538555    -0.20922421     0.058239826   -0.049853106   -0.049853106   -0.049853106  
      6450   0.645          0.97398131    -0.21517801     0.063125338   -0.049891342   -0.049891342   -0.049891342  
      6460   0.646          0.97402406    -0.2150842      0.062908935   -0.049892906   -0.049892906   -0.049892906  
      6470   0.647          0.97199981    -0.22387449     0.063670446   -0.049894478   -0.049894478   -0.049894478  
      6480   0.648          0.97319029    -0.21974279     0.061653323   -0.04991748    -0.04991748    -0.04991748   
      6490   0.649          0.97273714    -0.22260283     0.057333615   -0.049904414   -0.049904414   -0.049904414  
      6500   0.65           0.97417685    -0.21799458     0.054070755   -0.049945325   -0.049945325   -0.049945325  
      6510   0.651          0.97444795    -0.21639156     0.055284243   -0.049941789   -0.049941789   -0.049941789  
      6520   0.652          0.97313799    -0.22415002     0.044900412   -0.049924426   -0.049924426   -0.049924426  
      6530   0.653          0.97308217    -0.22512351     0.042334726   -0.049934917   -0.049934917   -0.049934917  
      6540   0.654          0.97339875    -0.2230593      0.040474311   -0.04988862    -0.04988862    -0.04988862   
      6550   0.655          0.97229962    -0.22818842     0.041182544   -0.049911995   -0.049911995   -0.049911995  
      6560   0.656          0.97201874    -0.22959956     0.036021553   -0.049882139   -0.049882139   -0.049882139  
      6570   0.657          0.97307602    -0.2262119      0.034402181   -0.049921971   -0.049921971   -0.049921971  
[...]
     58410   5.841          0.87216402    -0.47690193    -0.056145158   -0.049124544   -0.049124544   -0.049124544  
     58420   5.842          0.87601527    -0.47085061    -0.051711196   -0.049176471   -0.049176471   -0.049176471  
     58430   5.843          0.87970051    -0.4642717     -0.05404079    -0.04923292    -0.04923292    -0.04923292   
     58440   5.844          0.87962827    -0.46439554    -0.051269061   -0.049202525   -0.049202525   -0.049202525  
     58450   5.845          0.88090683    -0.46089012    -0.052264278   -0.049113573   -0.049113573   -0.049113573  
     58460   5.846          0.87871537    -0.46473633    -0.052101533   -0.049082277   -0.049082277   -0.049082277  
     58470   5.847          0.87601417    -0.46870172    -0.057240414   -0.049034625   -0.049034625   -0.049034625  
     58480   5.848          0.87495545    -0.47088766    -0.058629653   -0.049070731   -0.049070731   -0.049070731  
     58490   5.849          0.87425453    -0.47281968    -0.051585674   -0.049052817   -0.049052817   -0.049052817  
     58500   5.85           0.87409668    -0.47219848    -0.052082814   -0.04897167    -0.04897167    -0.04897167   
     58510   5.851          0.87325929    -0.47232654    -0.053302775   -0.048850303   -0.048850303   -0.048850303  
     58520   5.852          0.87176874    -0.47558284    -0.052975075   -0.048895383   -0.048895383   -0.048895383  
     58530   5.853          0.87087361    -0.47455747    -0.055885375   -0.048673656   -0.048673656   -0.048673656  
     58540   5.854          0.87117874    -0.4739995     -0.057899324   -0.048696799   -0.048696799   -0.048696799  
     58550   5.855          0.87597153    -0.46591322    -0.060942696   -0.048810298   -0.048810298   -0.048810298  
     58560   5.856          0.87651162    -0.46561837    -0.061883973   -0.04888904    -0.04888904    -0.04888904   
     58570   5.857          0.87481324    -0.46694159    -0.07269054    -0.048860427   -0.048860427   -0.048860427  
     58580   5.858          0.87516261    -0.46672639    -0.073562056   -0.048914219   -0.048914219   -0.048914219  
     58590   5.859          0.87216354    -0.47371329    -0.072827782   -0.049036508   -0.049036508   -0.049036508  
     58600   5.86           0.87499674    -0.46865051    -0.067507447   -0.048979753   -0.048979753   -0.048979753  
     58610   5.861          0.87645373    -0.46652375    -0.063356131   -0.048981723   -0.048981723   -0.048981723  
     58620   5.862          0.87622118    -0.46757429    -0.066994579   -0.049086519   -0.049086519   -0.049086519  
     58630   5.863          0.87679453    -0.46717522    -0.063453234   -0.049103529   -0.049103529   -0.049103529  
     58640   5.864          0.87767856    -0.46695964    -0.056438171   -0.049154385   -0.049154385   -0.049154385  
     58650   5.865          0.87746111    -0.46707433    -0.059683564   -0.049164618   -0.049164618   -0.049164618  
     58660   5.866          0.87448265    -0.47359132    -0.055663896   -0.049209472   -0.049209472   -0.049209472  
     58670   5.867          0.87124253    -0.47954092    -0.05247993    -0.04917648    -0.04917648    -0.04917648   
     58680   5.868          0.87237163    -0.47813214    -0.047283847   -0.049186598   -0.049186598   -0.049186598  
     58690   5.869          0.87057773    -0.48089092    -0.048404515   -0.049149229   -0.049149229   -0.049149229  
     58700   5.87           0.86899389    -0.48474545    -0.046091636   -0.049224058   -0.049224058   -0.049224058  
     58710   5.871          0.86601869    -0.49040955    -0.044576137   -0.049246453   -0.049246453   -0.049246453  
     58720   5.872          0.86706101    -0.48823326    -0.050428155   -0.049269711   -0.049269711   -0.049269711  
     58730   5.873          0.86449162    -0.49221787    -0.057124024   -0.049287494   -0.049287494   -0.049287494  
     58740   5.874          0.86275057    -0.49478937    -0.05862082    -0.049257907   -0.049257907   -0.049257907  
     58750   5.875          0.86586503    -0.48822296    -0.070668757   -0.049306556   -0.049306556   -0.049306556  
     58760   5.876          0.86335355    -0.49436372    -0.065312791   -0.049402818   -0.049402818   -0.049402818  
     58770   5.877          0.86354093    -0.49454908    -0.073378023   -0.04956536    -0.04956536    -0.04956536   
     58780   5.878          0.86549958    -0.49098497    -0.072977061   -0.049546894   -0.049546894   -0.049546894  
     58790   5.879          0.86607587    -0.49087168    -0.06465536    -0.049521026   -0.049521026   -0.049521026  
     58800   5.88           0.86531527    -0.49340947    -0.057963689   -0.049557074   -0.049557074   -0.049557074  
     58810   5.881          0.86296469    -0.49699337    -0.05801419    -0.049506365   -0.049506365   -0.049506365  
     58820   5.882          0.8603279     -0.50066415    -0.064027296   -0.049491573   -0.049491573   -0.049491573  
     58830   5.883          0.86239759    -0.49598178    -0.066091496   -0.049408317   -0.049408317   -0.049408317  
     58840   5.884          0.86211246    -0.49762098    -0.064078508   -0.049495813   -0.049495813   -0.049495813  
     58850   5.885          0.86060064    -0.50016824    -0.06697794    -0.049527532   -0.049527532   -0.049527532  
     58860   5.886          0.85791586    -0.5036277     -0.072150766   -0.049485376   -0.049485376   -0.049485376  
     58870   5.887          0.858497      -0.50362706    -0.069923871   -0.049553419   -0.049553419   -0.049553419  
     58880   5.888          0.86017055    -0.50094438    -0.071031897   -0.049587169   -0.049587169   -0.049587169  
     58890   5.889          0.86125306    -0.49904056    -0.07534058    -0.049646203   -0.049646203   -0.049646203  
     58900   5.89           0.86197322    -0.49787112    -0.074146983   -0.049635876   -0.049635876   -0.049635876  
     58910   5.891          0.86057047    -0.50088276    -0.06814968    -0.049609697   -0.049609697   -0.049609697  
     58920   5.892          0.85876987    -0.50306997    -0.071978993   -0.049573359   -0.049573359   -0.049573359  
     58930   5.893          0.8630089     -0.49640331    -0.069090669   -0.049596165   -0.049596165   -0.049596165  
     58940   5.894          0.8592084     -0.50249292    -0.067778297   -0.049531965   -0.049531965   -0.049531965  
     58950   5.895          0.85927764    -0.50216061    -0.071088882   -0.049556451   -0.049556451   -0.049556451  
     58960   5.896          0.85777155    -0.50571093    -0.064214104   -0.049562655   -0.049562655   -0.049562655  
     58970   5.897          0.85780468    -0.5056632     -0.060143994   -0.049512899   -0.049512899   -0.049512899  
     58980   5.898          0.85793071    -0.50534135    -0.060990852   -0.049512241   -0.049512241   -0.049512241  
     58990   5.899          0.85750366    -0.50640372    -0.058607811   -0.049517966   -0.049517966   -0.049517966  
     59000   5.9            0.85617081    -0.50874984    -0.055007323   -0.049486821   -0.049486821   -0.049486821  
     59010   5.901          0.85403633    -0.51371448    -0.056448221   -0.049645453   -0.049645453   -0.049645453  
     59020   5.902          0.85856949    -0.50692636    -0.04989068    -0.049659248   -0.049659248   -0.049659248  
     59030   5.903          0.86101029    -0.50300804    -0.053652486   -0.049722188   -0.049722188   -0.049722188  
     59040   5.904          0.85932178    -0.50532403    -0.05451388    -0.049674555   -0.049674555   -0.049674555  
     59050   5.905          0.85967625    -0.50363992    -0.062577529   -0.049659987   -0.049659987   -0.049659987  
     59060   5.906          0.8618276     -0.50010203    -0.066056441   -0.04971998    -0.04971998    -0.04971998   
     59070   5.907          0.86679506    -0.49091588    -0.06881494    -0.049705507   -0.049705507   -0.049705507  
     59080   5.908          0.86618961    -0.4907585     -0.071465669   -0.04962232    -0.04962232    -0.04962232   
     59090   5.909          0.86800785    -0.48860989    -0.065358978   -0.049643656   -0.049643656   -0.049643656  
     59100   5.91           0.86759394    -0.49069804    -0.057428517   -0.049678934   -0.049678934   -0.049678934  
     59110   5.911          0.86822418    -0.48669078    -0.067449087   -0.049521806   -0.049521806   -0.049521806  
     59120   5.912          0.86395784    -0.49467584    -0.060824878   -0.049481456   -0.049481456   -0.049481456  
     59130   5.913          0.86506628    -0.49188804    -0.063133797   -0.049426695   -0.049426695   -0.049426695  
     59140   5.914          0.86343292    -0.49509577    -0.055744095   -0.04937312    -0.04937312    -0.04937312   
     59150   5.915          0.86174335    -0.49832276    -0.054785788   -0.049391623   -0.049391623   -0.049391623  
     59160   5.916          0.86364186    -0.49534975    -0.0566594     -0.049444648   -0.049444648   -0.049444648  
     59170   5.917          0.86400708    -0.49483361    -0.058594737   -0.049478943   -0.049478943   -0.049478943  
     59180   5.918          0.86946854    -0.48596012    -0.047865872   -0.049441148   -0.049441148   -0.049441148  
     59190   5.919          0.86911048    -0.48665547    -0.052851397   -0.049496739   -0.049496739   -0.049496739  
     59200   5.92           0.87044054    -0.48481237    -0.049486727   -0.049514625   -0.049514625   -0.049514625  
     59210   5.921          0.87303987    -0.47908333    -0.043504017   -0.049359964   -0.049359964   -0.049359964  
     59220   5.922          0.87509286    -0.47381873    -0.049987246   -0.049277803   -0.049277803   -0.049277803  
     59230   5.923          0.87369912    -0.47814499    -0.047833706   -0.049424841   -0.049424841   -0.049424841  
     59240   5.924          0.8747904     -0.47475975    -0.053228959   -0.049347597   -0.049347597   -0.049347597  
     59250   5.925          0.87938537    -0.46609106    -0.052524544   -0.049330591   -0.049330591   -0.049330591  
     59260   5.926          0.87786792    -0.46679631    -0.055395242   -0.049160714   -0.049160714   -0.049160714  
     59270   5.927          0.87704394    -0.46791269    -0.057776618   -0.049147413   -0.049147413   -0.049147413  
     59280   5.928          0.88005592    -0.46373542    -0.051086545   -0.049214641   -0.049214641   -0.049214641  
     59290   5.929          0.88201581    -0.45976556    -0.056442592   -0.049250962   -0.049250962   -0.049250962  
     59300   5.93           0.88377512    -0.45566577    -0.055469982   -0.049175431   -0.049175431   -0.049175431  
     59310   5.931          0.8807491     -0.46149858    -0.060912386   -0.049239784   -0.049239784   -0.049239784  
     59320   5.932          0.87856651    -0.46763214    -0.056015686   -0.049368426   -0.049368426   -0.049368426  
     59330   5.933          0.87847055    -0.46901267    -0.054491221   -0.049464025   -0.049464025   -0.049464025  
     59340   5.934          0.87863099    -0.46882042    -0.056784542   -0.049499702   -0.049499702   -0.049499702  
     59350   5.935          0.87744385    -0.47209415    -0.054153411   -0.049570071   -0.049570071   -0.049570071  
     59360   5.936          0.87738894    -0.47158294    -0.049960106   -0.049468538   -0.049468538   -0.049468538  
     59370   5.937          0.87770522    -0.47124782    -0.049816389   -0.049491018   -0.049491018   -0.049491018  
     59380   5.938          0.88040442    -0.46600618    -0.052391021   -0.049500607   -0.049500607   -0.049500607  
     59390   5.939          0.88059054    -0.4657554     -0.053616743   -0.049523007   -0.049523007   -0.049523007  
     59400   5.94           0.87996581    -0.46819938    -0.046478621   -0.049569828   -0.049569828   -0.049569828  
     59410   5.941          0.87725315    -0.47144145    -0.054271256   -0.049476305   -0.049476305   -0.049476305  
     59420   5.942          0.88049994    -0.46493272    -0.059675367   -0.049499128   -0.049499128   -0.049499128  
     59430   5.943          0.87811652    -0.46828521    -0.057235298   -0.04936431    -0.04936431    -0.04936431   
     59440   5.944          0.87736122    -0.46890962    -0.059015348   -0.049310935   -0.049310935   -0.049310935  
     59450   5.945          0.87873211    -0.4666903     -0.055136091   -0.049299754   -0.049299754   -0.049299754  
     59460   5.946          0.87762334    -0.46976711    -0.053741731   -0.049377961   -0.049377961   -0.049377961  
     59470   5.947          0.87812426    -0.46985032    -0.051311049   -0.049448192   -0.049448192   -0.049448192  
     59480   5.948          0.87508171    -0.47420706    -0.054390011   -0.049358619   -0.049358619   -0.049358619  
     59490   5.949          0.87606697    -0.47345242    -0.057212776   -0.049491138   -0.049491138   -0.049491138  
     59500   5.95           0.87693913    -0.47144034    -0.054863179   -0.049427576   -0.049427576   -0.049427576  
     59510   5.951          0.87900632    -0.46733876    -0.053513556   -0.04939089    -0.04939089    -0.04939089   
     59520   5.952          0.87700369    -0.47013956    -0.057790228   -0.049349397   -0.049349397   -0.049349397  
     59530   5.953          0.87600838    -0.47169571    -0.064198966   -0.04939966    -0.04939966    -0.04939966   
     59540   5.954          0.87529164    -0.47299155    -0.057860058   -0.049319183   -0.049319183   -0.049319183  
     59550   5.955          0.87631849    -0.47211174    -0.060480312   -0.049446902   -0.049446902   -0.049446902  
     59560   5.956          0.87622932    -0.47096933    -0.063465954   -0.049360544   -0.049360544   -0.049360544  
     59570   5.957          0.87065104    -0.48093475    -0.061261248   -0.0493072     -0.0493072     -0.0493072    
     59580   5.958          0.87255704    -0.47848534    -0.057530442   -0.049360133   -0.049360133   -0.049360133  
     59590   5.959          0.86864482    -0.48551421    -0.06405195    -0.049435808   -0.049435808   -0.049435808  
     59600   5.96           0.86969119    -0.4834896     -0.06169909    -0.04939193    -0.04939193    -0.04939193   
     59610   5.961          0.86635269    -0.48961108    -0.057260497   -0.049355233   -0.049355233   -0.049355233  
     59620   5.962          0.86117062    -0.4985165     -0.053182124   -0.049294947   -0.049294947   -0.049294947  
     59630   5.963          0.86094829    -0.49995144    -0.050869534   -0.049375868   -0.049375868   -0.049375868  
     59640   5.964          0.86162626    -0.49833078    -0.052532232   -0.04934806    -0.04934806    -0.04934806   
     59650   5.965          0.86400283    -0.49374291    -0.049247335   -0.049269585   -0.049269585   -0.049269585  
     59660   5.966          0.86177282    -0.49738945    -0.050629818   -0.049259965   -0.049259965   -0.049259965  
     59670   5.967          0.86059077    -0.49984385    -0.052746123   -0.049323008   -0.049323008   -0.049323008  
     59680   5.968          0.8616687     -0.4985347     -0.052977476   -0.049380398   -0.049380398   -0.049380398  
     59690   5.969          0.86217149    -0.49732816    -0.051221419   -0.049328619   -0.049328619   -0.049328619  
     59700   5.97           0.86039902    -0.49956723    -0.050809035   -0.049242306   -0.049242306   -0.049242306  
     59710   5.971          0.8654812     -0.49028401    -0.051177082   -0.049204283   -0.049204283   -0.049204283  
     59720   5.972          0.86858446    -0.48408146    -0.056547786   -0.049195909   -0.049195909   -0.049195909  
     59730   5.973          0.86887515    -0.48355975    -0.055214952   -0.049181037   -0.049181037   -0.049181037  
     59740   5.974          0.87108452    -0.48041121    -0.060094163   -0.049318207   -0.049318207   -0.049318207  
     59750   5.975          0.87254242    -0.47960234    -0.053751288   -0.049422544   -0.049422544   -0.049422544  
     59760   5.976          0.87242311    -0.4801354     -0.054827746   -0.049464572   -0.049464572   -0.049464572  
     59770   5.977          0.87031174    -0.48222719    -0.063241766   -0.049397268   -0.049397268   -0.049397268  
     59780   5.978          0.87161829    -0.48044309    -0.058986215   -0.049401095   -0.049401095   -0.049401095  
     59790   5.979          0.86804268    -0.48552039    -0.063974125   -0.049330842   -0.049330842   -0.049330842  
     59800   5.98           0.8681034     -0.48719154    -0.055766459   -0.049405658   -0.049405658   -0.049405658  
     59810   5.981          0.86715311    -0.48891548    -0.05512642    -0.049401935   -0.049401935   -0.049401935  
     59820   5.982          0.86409649    -0.49495015    -0.056105305   -0.049477375   -0.049477375   -0.049477375  
     59830   5.983          0.86649473    -0.48950884    -0.062702955   -0.049435125   -0.049435125   -0.049435125  
     59840   5.984          0.86415522    -0.49365404    -0.064195404   -0.049456717   -0.049456717   -0.049456717  
     59850   5.985          0.8650542     -0.49195601    -0.063260223   -0.04943289    -0.04943289    -0.04943289   
     59860   5.986          0.86200929    -0.4966872     -0.063216487   -0.049374209   -0.049374209   -0.049374209  
     59870   5.987          0.8645399     -0.49018822    -0.071344604   -0.049279137   -0.049279137   -0.049279137  
     59880   5.988          0.8655628     -0.48763791    -0.066588648   -0.049141136   -0.049141136   -0.049141136  
     59890   5.989          0.86884999    -0.48260227    -0.055193741   -0.049083926   -0.049083926   -0.049083926  
     59900   5.99           0.86653752    -0.48532698    -0.054817861   -0.048942224   -0.048942224   -0.048942224  
     59910   5.991          0.86715158    -0.48416581    -0.048768201   -0.048873443   -0.048873443   -0.048873443  
     59920   5.992          0.86867565    -0.4811231     -0.050256368   -0.048859023   -0.048859023   -0.048859023  
     59930   5.993          0.87118964    -0.4776975     -0.044039384   -0.048909345   -0.048909345   -0.048909345  
     59940   5.994          0.87342144    -0.47437323    -0.039295336   -0.048942677   -0.048942677   -0.048942677  
     59950   5.995          0.87525864    -0.47192262    -0.040331101   -0.049040291   -0.049040291   -0.049040291  
     59960   5.996          0.87762965    -0.46601156    -0.044697192   -0.04893861    -0.04893861    -0.04893861   
     59970   5.997          0.87816523    -0.46563529    -0.047624429   -0.049024613   -0.049024613   -0.049024613  
     59980   5.998          0.87828073    -0.46565755    -0.043530266   -0.049009653   -0.049009653   -0.049009653  
     59990   5.999          0.87706488    -0.46780058    -0.044906628   -0.049008445   -0.049008445   -0.049008445  
     60000   6              0.87896424    -0.46197942    -0.043561042   -0.048788841   -0.048788841   -0.048788841  
Loop time of 0.492475 on 1 procs for 60000 steps with 2 atoms

Performance: 1052.642 ns/day, 0.023 hours/ns, 121833.513 timesteps/s
55.5% CPU use with 1 MPI tasks x no OpenMP threads

MPI task timing breakdown:
Section |  min time  |  avg time  |  max time  |%varavg| %total
---------------------------------------------------------------
Pair    | 0.013797   | 0.013797   | 0.013797   |   0.0 |  2.80
Neigh   | 0          | 0          | 0          |   0.0 |  0.00
Comm    | 0.0059656  | 0.0059656  | 0.0059656  |   0.0 |  1.21
Output  | 0.32376    | 0.32376    | 0.32376    |   0.0 | 65.74
Modify  | 0.13193    | 0.13193    | 0.13193    |   0.0 | 26.79
Other   |            | 0.01702    |            |       |  3.46

Nlocal:              2 ave           2 max           2 min
Histogram: 1 0 0 0 0 0 0 0 0 0
Nghost:              0 ave           0 max           0 min
Histogram: 1 0 0 0 0 0 0 0 0 0
Neighs:              0 ave           0 max           0 min
Histogram: 1 0 0 0 0 0 0 0 0 0
FullNghs:            2 ave           2 max           2 min
Histogram: 1 0 0 0 0 0 0 0 0 0

Total # of neighbors = 2
Ave neighs/atom = 1
Neighbor list builds = 0
Dangerous builds = 0
Total wall time: 0:00:00
