ITEM: TIMESTEP
0
ITEM: NUMBER OF ATOMS
5780
ITEM: BOX BOUNDS pp pp ff
0.0000000000000000e+00 1.3463999999999999e+02
0.0000000000000000e+00 1.3463999999999999e+02
0.0000000000000000e+00 1.9800000000000001e+01
ITEM: ATOMS type x y z c_outsp[1] c_outsp[2] c_outsp[3]
1 0 0 0 0.576308 0.571062 -0.5846
1 3.96 0 0 0.266288 -0.909121 -0.320296
1 7.92 0 0 -0.492182 0.562098 0.664683
1 11.88 0 0 0.410003 0.677672 0.610458
1 15.84 0 0 0.45548 -0.512103 0.728209
1 19.8 0 0 0.680283 -0.451931 0.577038
1 23.76 0 0 -0.378725 0.721568 0.579575
1 27.72 0 0 0.00557006 -0.765522 0.643386
1 31.68 0 0 -0.620994 0.778179 -0.0938286
1 35.64 0 0 0.742527 0.668582 -0.0406459
1 39.6 0 0 0.398574 0.895753 -0.196891
1 43.56 0 0 -0.142886 0.705524 0.694133
1 47.52 0 0 0.367695 0.715615 0.593882
1 51.48 0 0 -0.691394 0.541148 -0.47868
1 55.44 0 0 -0.569339 0.648561 -0.505195
1 59.4 0 0 0.0665412 -0.512235 -0.856264
1 63.36 0 0 0.276947 0.34563 -0.896572
1 67.32 0 0 -0.696193 0.161041 -0.699558
1 71.28 0 0 -0.107738 -0.851722 -0.512798
1 75.24 0 0 0.505509 0.326028 0.798853
1 79.2 0 0 0.282041 -0.921095 0.268398
1 83.16 0 0 -0.691299 0.719691 0.064421
1 87.12 0 0 0.37744 -0.372544 0.847791
1 91.08 0 0 0.587394 0.69828 -0.409114
1 95.04 0 0 0.478698 0.573649 -0.664661
1 99 0 0 0.284032 -0.564485 -0.775037
1 102.96 0 0 0.0542233 0.840924 0.538429
1 106.92 0 0 -0.652598 0.747945 0.12122
1 110.88 0 0 0.401574 0.322891 0.857018
1 114.84 0 0 0.625621 0.778257 0.0539941
1 118.8 0 0 0.211513 -0.945008 0.249443
1 122.76 0 0 -0.275921 0.709553 0.648385
1 126.72 0 0 -0.665526 0.42073 -0.616491
1 130.68 0 0 0.833817 -0.277214 0.477391
1 0 3.96 0 -0.144096 0.717612 0.681373
1 3.96 3.96 0 0.210694 -0.154166 -0.965319
1 7.92 3.96 0 0.465863 -0.624428 0.626946
1 11.88 3.96 0 -0.829471 0.296954 0.473072
1 15.84 3.96 0 -0.527819 -0.849157 0.0184384
1 19.8 3.96 0 0.874967 -0.316497 0.366417
1 23.76 3.96 0 0.321993 -0.762988 0.560508
1 27.72 3.96 0 -0.295729 -0.184741 0.937238
1 31.68 3.96 0 0.274963 -0.853539 -0.442569
1 35.64 3.96 0 0.058914 0.935918 -0.347255
1 39.6 3.96 0 -0.475957 -0.489678 -0.730535
1 43.56 3.96 0 -0.95543 0.0452123 0.291735
1 47.52 3.96 0 -0.202108 -0.167271 0.964973
1 51.48 3.96 0 -0.594382 -0.70233 -0.391719
1 55.44 3.96 0 0.462839 -0.678261 0.570738
1 59.4 3.96 0 -0.454191 0.427245 0.781775
1 63.36 3.96 0 -0.815674 -0.575615 -0.0578206
1 67.32 3.96 0 0.665017 0.540239 -0.515649
1 71.28 3.96 0 0.534593 0.603708 -0.591395
1 75.24 3.96 0 0.0570556 -0.933034 0.355235
1 79.2 3.96 0 -0.391672 0.0178947 0.919931
1 83.16 3.96 0 0.567203 -0.540959 0.621002
1 87.12 3.96 0 -0.926572 0.149864 -0.34497
1 91.08 3.96 0 0.125155 0.641156 -0.757136
1 95.04 3.96 0 -0.428186 0.864616 0.26286
1 99 3.96 0 -0.697872 -0.434538 0.569343
1 102.96 3.96 0 0.867313 0.0331418 0.496659
1 106.92 3.96 0 -0.670242 -0.214014 0.710615
1 110.88 3.96 0 -0.152487 -0.732637 0.663318
1 114.84 3.96 0 -0.278896 -0.829726 -0.4835
1 118.8 3.96 0 -0.0323087 0.0661883 -0.997284
1 122.76 3.96 0 -0.760374 0.580978 -0.290338
1 126.72 3.96 0 0.908467 0.215036 0.358395
1 130.68 3.96 0 -0.324959 -0.465946 -0.82298
1 0 7.92 0 0.303818 -0.604285 -0.736569
1 3.96 7.92 0 0.512641 -0.519193 -0.68384
1 7.92 7.92 0 0.810042 -0.156846 0.565005
1 11.88 7.92 0 0.773385 0.600075 0.204415
1 15.84 7.92 0 -0.887509 0.458388 0.0469991
1 19.8 7.92 0 0.278116 0.642729 0.713828
1 23.76 7.92 0 0.845373 0.293326 0.446435
1 27.72 7.92 0 0.521666 0.642278 -0.561555
1 31.68 7.92 0 0.483725 -0.603137 0.634221
1 35.64 7.92 0 0.965642 0.259521 -0.0135509
1 39.6 7.92 0 -0.238929 -0.404314 -0.882861
1 43.56 7.92 0 -0.731222 -0.129669 -0.669702
1 47.52 7.92 0 0.782439 -0.0274244 0.622124
1 51.48 7.92 0 -0.858859 -0.509969 0.0478721
1 55.44 7.92 0 -0.562311 0.688075 -0.45865
1 59.4 7.92 0 0.464853 -0.578288 0.670443
1 63.36 7.92 0 -0.916241 -0.331241 0.225349
1 67.32 7.92 0 0.62985 0.116197 -0.767976
1 71.28 7.92 0 0.0707371 0.825581 -0.559833
1 75.24 7.92 0 0.813081 -0.540523 -0.21618
1 79.2 7.92 0 -0.795799 0.190464 -0.574828
1 83.16 7.92 0 0.604941 -0.306868 -0.734765
1 87.12 7.92 0 0.809219 -0.587478 0.00577797
1 91.08 7.92 0 0.925162 0.243914 0.290829
1 95.04 7.92 0 -0.633665 -0.66303 0.398572
1 99 7.92 0 0.382265 0.854505 0.351702
1 102.96 7.92 0 0.0426797 0.420823 -0.906138
1 106.92 7.92 0 -0.0102976 -0.819009 -0.573688
1 110.88 7.92 0 -0.660467 -0.330765 -0.674076
1 114.84 7.92 0 -0.317297 -0.455155 -0.83196
1 118.8 7.92 0 0.0243474 0.244622 0.969313
1 122.76 7.92 0 -0.407581 -0.830767 0.379083
1 126.72 7.92 0 -0.786249 0.584632 -0.200045
1 130.68 7.92 0 0.547843 0.778155 -0.307153
1 0 11.88 0 0.682896 -0.724593 0.0928362
1 3.96 11.88 0 0.573941 -0.653915 0.492936
1 7.92 11.88 0 0.115169 0.909207 -0.400098
1 11.88 11.88 0 -0.386717 -0.0809399 -0.91864
1 15.84 11.88 0 0.715391 0.397721 -0.574485
1 19.8 11.88 0 -0.263912 0.625152 -0.734531
1 23.76 11.88 0 -0.707766 -0.649854 -0.277051
1 27.72 11.88 0 -0.805872 0.565121 -0.17666
1 31.68 11.88 0 0.774522 0.495916 0.392662
1 35.64 11.88 0 0.896878 0.204485 0.392169
1 39.6 11.88 0 0.750627 0.63223 -0.191949
1 43.56 11.88 0 0.270389 -0.232071 -0.934362
1 47.52 11.88 0 0.778521 -0.620873 0.0917747
1 51.48 11.88 0 0.433184 -0.740428 -0.513924
1 55.44 11.88 0 -0.961077 0.0291867 -0.274735
1 59.4 11.88 0 0.794037 0.433227 -0.426404
1 63.36 11.88 0 0.493902 0.443636 0.747829
1 67.32 11.88 0 0.919207 -0.264368 -0.291835
1 71.28 11.88 0 -0.503667 0.252619 -0.826138
1 75.24 11.88 0 -0.633788 0.15263 0.758299
1 79.2 11.88 0 0.145338 0.294335 0.944586
1 83.16 11.88 0 -0.594537 -0.703605 -0.389186
1 87.12 11.88 0 -0.251579 0.673431 -0.695125
1 91.08 11.88 0 0.100582 -0.792512 0.601504
1 95.04 11.88 0 0.658962 0.462184 0.593426
1 99 11.88 0 -0.784967 -0.259646 0.562504
1 102.96 11.88 0 -0.418304 -0.639811 0.644719
1 106.92 11.88 0 0.0964336 -0.471164 -0.876758
1 110.88 11.88 0 -0.149378 0.842048 0.518307
1 114.84 11.88 0 -0.0709349 0.940367 0.332684
1 118.8 11.88 0 -0.260384 -0.964273 -0.0487545
1 122.76 11.88 0 -0.562519 -0.810322 0.164164
1 126.72 11.88 0 0.0187207 0.32412 0.945831
1 130.68 11.88 0 0.571983 0.318366 -0.755962
1 0 15.84 0 0.664902 0.566771 -0.486494
1 3.96 15.84 0 -0.539057 -0.720521 -0.436196
1 7.92 15.84 0 -0.683739 0.0593583 0.727309
1 11.88 15.84 0 -0.484563 0.505923 -0.713611
1 15.84 15.84 0 0.0661995 -0.276994 0.958589
1 19.8 15.84 0 -0.56469 0.593521 0.573461
1 23.76 15.84 0 -0.282987 -0.665323 0.690842
1 27.72 15.84 0 0.297877 0.569219 0.766328
1 31.68 15.84 0 -0.824408 -0.099784 -0.55713
1 35.64 15.84 0 0.649522 -0.584383 -0.486434
1 39.6 15.84 0 -0.76681 0.388679 0.510813
1 43.56 15.84 0 0.119964 0.0372725 0.992078
1 47.52 15.84 0 -0.568688 0.775529 0.274133
1 51.48 15.84 0 0.627105 0.31084 -0.714225
1 55.44 15.84 0 0.746965 0.522169 -0.411562
1 59.4 15.84 0 -0.28583 -0.505747 -0.813954
1 63.36 15.84 0 -0.295457 -0.890928 0.344895
1 67.32 15.84 0 0.627999 -0.21839 -0.746943
1 71.28 15.84 0 0.619536 -0.457139 0.638121
1 75.24 15.84 0 -0.498434 -0.414964 -0.761163
1 79.2 15.84 0 -0.6004 0.622257 0.50231
1 83.16 15.84 0 0.338607 -0.479081 -0.809831
1 87.12 15.84 0 -0.0139709 -0.920287 -0.390995
1 91.08 15.84 0 -0.640295 -0.626437 0.444521
1 95.04 15.84 0 -0.544036 -0.637802 -0.545191
1 99 15.84 0 0.267061 -0.473812 -0.839155
1 102.96 15.84 0 0.759467 -0.538677 -0.364743
1 106.92 15.84 0 -0.180741 0.797325 -0.575853
1 110.88 15.84 0 -0.748143 0.589057 -0.305441
1 114.84 15.84 0 -0.270298 0.621219 0.735545
1 118.8 15.84 0 -0.432992 -0.604853 -0.668334
1 122.76 15.84 0 -0.17235 0.501182 -0.848005
1 126.72 15.84 0 -0.71117 0.694653 0.108137
1 130.68 15.84 0 -0.705146 0.682831 -0.191079
1 0 19.8 0 0.161323 0.313655 -0.935732
1 3.96 19.8 0 -0.0938704 0.382386 0.919222
1 7.92 19.8 0 -0.483359 0.669788 0.563692
1 11.88 19.8 0 0.379785 -0.903956 -0.196536
1 15.84 19.8 0 0.226197 -0.938432 0.261115
1 19.8 19.8 0 0.533189 0.625468 -0.569648
1 23.76 19.8 0 0.579566 0.464259 0.669751
1 27.72 19.8 0 -0.596075 0.801955 0.0395259
1 31.68 19.8 0 -0.696351 0.466024 -0.545819
1 35.64 19.8 0 0.891329 -0.397492 0.21802
1 39.6 19.8 0 -0.550551 0.567231 0.612488
1 43.56 19.8 0 -0.510525 0.470047 -0.720014
1 47.52 19.8 0 -0.0637708 -0.239197 0.968875
1 51.48 19.8 0 0.715252 -0.68811 -0.122145
1 55.44 19.8 0 0.571771 -0.281154 -0.770734
1 59.4 19.8 0 -0.409178 -0.100661 0.906885
1 63.36 19.8 0 0.968023 -0.107703 -0.226563
1 67.32 19.8 0 -0.67136 0.0372562 0.740194
1 71.28 19.8 0 0.790946 -0.401024 -0.462151
1 75.24 19.8 0 0.436307 -0.203959 0.876377
1 79.2 19.8 0 -0.490908 -0.405551 -0.771063
1 83.16 19.8 0 -0.582276 0.701694 -0.410585
1 87.12 19.8 0 -0.444447 -0.0736377 -0.892774
1 91.08 19.8 0 0.127282 0.667887 0.733298
1 95.04 19.8 0 0.610007 -0.574779 0.545454
1 99 19.8 0 -0.146864 0.842413 -0.518431
1 102.96 19.8 0 -0.134478 -0.708043 -0.693247
1 106.92 19.8 0 0.498424 -0.622293 0.603593
1 110.88 19.8 0 0.618864 -0.23812 -0.748536
1 114.84 19.8 0 -0.715002 0.372303 0.591746
1 118.8 19.8 0 0.67899 0.731245 0.0652108
1 122.76 19.8 0 0.738978 0.608583 0.28903
1 126.72 19.8 0 -0.0747107 -0.997203 -0.00211789
1 130.68 19.8 0 -0.531513 0.676241 0.51009
1 0 23.76 0 0.828817 0.509268 -0.231751
1 3.96 23.76 0 -0.889982 0.0843335 -0.448129
1 7.92 23.76 0 -0.266407 0.903682 0.33524
1 11.88 23.76 0 -0.103157 -0.990889 -0.0865888
1 15.84 23.76 0 -0.0533237 0.8462 0.530191
1 19.8 23.76 0 0.646477 -0.352474 0.676631
1 23.76 23.76 0 -0.199448 -0.055386 0.978342
1 27.72 23.76 0 -0.721919 -0.375762 0.581065
1 31.68 23.76 0 0.46134 0.630086 0.624626
1 35.64 23.76 0 -0.474956 0.0784255 -0.876508
1 39.6 23.76 0 -0.457231 -0.725927 -0.51378
1 43.56 23.76 0 0.677228 0.734293 -0.0466523
1 47.52 23.76 0 0.741065 0.658546 -0.13092
1 51.48 23.76 0 -0.588263 -0.808244 0.0262427
1 55.44 23.76 0 -0.266459 -0.409537 -0.872513
1 59.4 23.76 0 0.471276 -0.807643 -0.354418
1 63.36 23.76 0 0.570433 -0.716464 -0.401604
1 67.32 23.76 0 -0.588483 0.214188 -0.779623
1 71.28 23.76 0 0.127473 -0.455487 -0.881069
1 75.24 23.76 0 -0.530479 -0.455328 -0.71503
1 79.2 23.76 0 0.474719 0.801082 0.364568
1 83.16 23.76 0 0.819255 -0.195049 -0.539237
1 87.12 23.76 0 0.14589 -0.707749 -0.691236
1 91.08 23.76 0 0.652884 -0.523317 -0.547615
1 95.04 23.76 0 -0.704146 -0.697596 -0.132434
1 99 23.76 0 -0.64046 0.577134 0.506683
1 102.96 23.76 0 -0.302176 -0.107559 0.947164
1 106.92 23.76 0 0.755431 0.473316 -0.453096
1 110.88 23.76 0 -0.133991 0.357984 0.924064
1 114.84 23.76 0 0.0354926 0.250091 0.967571
1 118.8 23.76 0 -0.875415 -0.0928968 -0.474361
1 122.76 23.76 0 -0.0717075 -0.671106 0.737886
1 126.72 23.76 0 -0.716508 0.443928 -0.538093
1 130.68 23.76 0 0.553715 0.618163 -0.55792
1 0 27.72 0 -0.466193 -0.881415 -0.0759733
1 3.96 27.72 0 -0.197957 -0.582221 0.788563
1 7.92 27.72 0 0.485537 0.44751 -0.750992
1 11.88 27.72 0 0.659814 -0.711289 0.24231
1 15.84 27.72 0 -0.401571 -0.597888 0.693736
1 19.8 27.72 0 -0.192796 -0.712292 0.674885
1 23.76 27.72 0 0.358217 -0.757472 -0.545817
1 27.72 27.72 0 0.742222 -0.488908 0.45834
1 31.68 27.72 0 -0.652165 -0.235551 -0.720553
1 35.64 27.72 0 -0.616828 -0.619073 -0.486078
1 39.6 27.72 0 0.773855 -0.390798 -0.498423
1 43.56 27.72 0 -0.76846 -0.258037 0.585565
1 47.52 27.72 0 -0.922464 0.374899 0.0922526
1 51.48 27.72 0 -0.342852 0.0936106 -0.934714
1 55.44 27.72 0 -0.716331 -0.0611962 0.695072
1 59.4 27.72 0 0.809145 -0.220833 -0.544534
1 63.36 27.72 0 -0.700851 -0.585251 0.407786
1 67.32 27.72 0 -0.230921 0.33945 -0.911838
1 71.28 27.72 0 -0.675171 -0.392849 -0.624351
1 75.24 27.72 0 0.625147 -0.455923 -0.633502
1 79.2 27.72 0 -0.717822 -0.220696 0.660322
1 83.16 27.72 0 0.831899 0.503649 -0.232984
1 87.12 27.72 0 -0.857475 0.415426 -0.303577
1 91.08 27.72 0 0.761691 -0.262852 0.592229
1 95.04 27.72 0 0.729239 0.39549 0.558389
1 99 27.72 0 -0.331767 -0.358234 0.872696
1 102.96 27.72 0 0.873523 -0.030432 -0.48583
1 106.92 27.72 0 -0.469909 0.439309 0.765633
1 110.88 27.72 0 -0.139672 0.935972 -0.323185
1 114.84 27.72 0 -0.61798 -0.561612 -0.550175
1 118.8 27.72 0 -0.0411958 0.726742 0.685674
1 122.76 27.72 0 0.187009 -0.892138 -0.41124
1 126.72 27.72 0 0.988497 -0.130932 -0.0756954
1 130.68 27.72 0 -0.731421 -0.605966 0.312775
1 0 31.68 0 0.827273 -0.203574 0.523618
1 3.96 31.68 0 0.604601 -0.549994 0.576164
1 7.92 31.68 0 -0.0944478 0.463229 -0.881191
1 11.88 31.68 0 0.695029 0.484144 -0.531545
1 15.84 31.68 0 -0.275977 0.670096 -0.689063
1 19.8 31.68 0 -0.695399 0.691584 -0.195276
1 23.76 31.68 0 -0.485748 0.0740994 0.870953
1 27.72 31.68 0 0.655846 0.0788256 0.750768
1 31.68 31.68 0 -0.334307 -0.645407 0.686796
1 35.64 31.68 0 0.260184 -0.0482855 -0.964351
1 39.6 31.68 0 -0.215364 0.554662 0.803722
1 43.56 31.68 0 0.654269 0.629943 -0.418453
1 47.52 31.68 0 0.621226 -0.652867 -0.433408
1 51.48 31.68 0 0.774306 -0.479109 -0.413405
1 55.44 31.68 0 0.0590116 0.215855 0.974641
1 59.4 31.68 0 -0.772589 -0.530779 -0.348395
1 63.36 31.68 0 -0.501274 -0.84698 -0.177057
1 67.32 31.68 0 0.323579 0.823529 0.465937
1 71.28 31.68 0 0.195364 0.169556 0.965963
1 75.24 31.68 0 0.763831 0.594406 -0.251482
1 79.2 31.68 0 0.652102 -0.758089 0.00797532
1 83.16 31.68 0 0.662059 0.368092 0.652829
1 87.12 31.68 0 0.575163 -0.77264 0.26873
1 91.08 31.68 0 -0.651195 -0.620192 -0.437388
1 95.04 31.68 0 -0.760532 0.436712 -0.480493
1 99 31.68 0 -0.609684 -0.678553 0.409695
1 102.96 31.68 0 -0.198162 0.750788 -0.630118
1 106.92 31.68 0 -0.907227 -0.0582841 -0.416584
1 110.88 31.68 0 -0.186604 -0.458013 -0.869139
1 114.84 31.68 0 0.142606 0.987261 0.0705571
1 118.8 31.68 0 -0.607658 0.764436 -0.215383
1 122.76 31.68 0 0.759576 -0.637302 -0.129963
1 126.72 31.68 0 0.791523 0.347428 0.502777
1 130.68 31.68 0 0.0502745 0.916492 -0.396882
1 0 35.64 0 -0.428262 -0.849758 0.307412
1 3.96 35.64 0 0.266628 -0.919217 0.28974
1 7.92 35.64 0 -0.33389 -0.681301 -0.651418
1 11.88 35.64 0 0.524907 0.131998 -0.840862
1 15.84 35.64 0 -0.671447 -0.452589 -0.58679
1 19.8 35.64 0 0.548689 0.819533 -0.165244
1 23.76 35.64 0 -0.613686 0.685233 -0.392231
1 27.72 35.64 0 0.436925 -0.899064 0.0279307
1 31.68 35.64 0 0.533711 0.223381 0.815631
1 35.64 35.64 0 -0.285294 -0.637304 -0.715857
1 39.6 35.64 0 -0.862743 -0.217668 0.456394
1 43.56 35.64 0 0.582548 -0.677988 -0.448297
1 47.52 35.64 0 -0.268159 -0.493379 0.827446
1 51.48 35.64 0 0.149277 -0.665795 0.731049
1 55.44 35.64 0 0.71373 -0.628726 0.308696
1 59.4 35.64 0 0.503479 -0.44115 -0.742896
1 63.36 35.64 0 -0.639685 -0.417297 -0.645498
1 67.32 35.64 0 -0.827393 0.538032 -0.161068
1 71.28 35.64 0 -0.179691 0.743541 0.644095
1 75.24 35.64 0 -0.668839 -0.540331 0.510584
1 79.2 35.64 0 0.410602 -0.873138 -0.262747
1 83.16 35.64 0 -0.774722 -0.568768 -0.276241
1 87.12 35.64 0 -0.572869 -0.462202 -0.676898
1 91.08 35.64 0 0.676068 -0.434979 -0.594748
1 95.04 35.64 0 -0.862706 -0.464507 0.19993
1 99 35.64 0 -0.772927 -0.633657 0.0325879
1 102.96 35.64 0 0.533314 0.573253 0.622059
1 106.92 35.64 0 -0.697582 0.439765 -0.565673
1 110.88 35.64 0 0.912446 -0.347388 0.216249
1 114.84 35.64 0 0.694298 0.0818104 0.715023
1 118.8 35.64 0 -0.874465 -0.435092 0.21449
1 122.76 35.64 0 0.0370658 -0.792723 0.608454
1 126.72 35.64 0 0.481978 0.7422 -0.465656
1 130.68 35.64 0 0.297164 0.457723 0.837963
1 0 39.6 0 -0.636098 -0.189426 0.747995
1 3.96 39.6 0 0.41365 -0.906659 0.0828394
1 7.92 39.6 0 0.93271 -0.349644 -0.0883232
1 11.88 39.6 0 0.659314 0.119418 -0.742323
1 15.84 39.6 0 -0.343183 -0.554661 -0.758009
1 19.8 39.6 0 0.139765 0.923598 0.356976
1 23.76 39.6 0 0.59922 -0.564949 0.567246
1 27.72 39.6 0 0.565811 -0.546014 -0.61784
1 31.68 39.6 0 -0.825647 -0.144803 -0.545289
1 35.64 39.6 0 0.830826 -0.0647939 0.552748
1 39.6 39.6 0 0.975004 0.167478 0.146006
1 43.56 39.6 0 -0.759862 0.167274 0.628195
1 47.52 39.6 0 0.109151 -0.972482 0.205827
1 51.48 39.6 0 -0.560811 0.61127 0.558425
1 55.44 39.6 0 0.429241 0.441765 0.787779
1 59.4 39.6 0 0.529266 -0.648376 -0.547253
1 63.36 39.6 0 -0.418665 0.766896 0.486406
1 67.32 39.6 0 -0.107566 -0.913016 0.393485
1 71.28 39.6 0 0.799252 -0.185902 -0.571521
1 75.24 39.6 0 0.145335 -0.685972 -0.712966
1 79.2 39.6 0 -0.559017 -0.622972 0.54718
1 83.16 39.6 0 -0.531967 -0.611398 0.585836
1 87.12 39.6 0 -0.222456 0.580962 0.782941
1 91.08 39.6 0 0.278776 -0.144508 0.949422
1 95.04 39.6 0 -0.0641865 -0.407851 0.91079
1 99 39.6 0 0.582709 -0.77915 -0.231031
1 102.96 39.6 0 0.0882194 -0.119523 -0.988904
1 106.92 39.6 0 0.424588 -0.643462 0.636931
1 110.88 39.6 0 0.718176 -0.0324906 -0.695102
1 114.84 39.6 0 -0.233692 -0.730213 -0.64201
1 118.8 39.6 0 0.678893 -0.683045 -0.269358
1 122.76 39.6 0 -0.599416 0.129288 0.789928
1 126.72 39.6 0 -0.865784 -0.325532 -0.380062
1 130.68 39.6 0 -0.625486 0.302459 -0.719226
1 0 43.56 0 0.839798 0.212691 -0.499501
1 3.96 43.56 0 -0.338029 0.0528623 0.93965
1 7.92 43.56 0 -0.734571 0.511312 0.446056
1 11.88 43.56 0 -0.289278 0.407428 0.86621
1 15.84 43.56 0 0.469107 0.785458 0.403725
1 19.8 43.56 0 0.174555 0.683496 -0.708776
1 23.76 43.56 0 0.849234 0.497391 0.17721
1 27.72 43.56 0 0.243666 0.886558 0.393245
1 31.68 43.56 0 -0.722623 -0.22341 0.654144
1 35.64 43.56 0 0.610677 0.52248 0.595054
1 39.6 43.56 0 -0.260762 0.939715 0.221223
1 43.56 43.56 0 0.769167 0.415554 -0.485486
1 47.52 43.56 0 0.113593 0.820546 0.560179
1 51.48 43.56 0 -0.34817 -0.342017 0.872813
1 55.44 43.56 0 0.914277 -0.371378 0.161789
1 59.4 43.56 0 -0.217204 -0.975878 0.0220228
1 63.36 43.56 0 0.731768 -0.428601 -0.529921
1 67.32 43.56 0 0.990272 0.101684 0.0949811
1 71.28 43.56 0 -0.0314603 0.566422 0.823514
1 75.24 43.56 0 0.947534 -0.0798717 0.309515
1 79.2 43.56 0 -0.49435 -0.863341 -0.101292
1 83.16 43.56 0 0.314881 0.763497 0.563846
1 87.12 43.56 0 -0.932868 -0.0540429 0.35614
1 91.08 43.56 0 0.699246 -0.555047 -0.450531
1 95.04 43.56 0 0.756599 -0.0420606 0.652525
1 99 43.56 0 -0.886778 0.203499 -0.414985
1 102.96 43.56 0 -0.651254 0.481944 -0.586172
1 106.92 43.56 0 -0.456828 0.875655 0.156641
1 110.88 43.56 0 0.769396 -0.204621 0.605112
1 114.84 43.56 0 0.743527 0.245443 -0.622033
1 118.8 43.56 0 0.465476 -0.538337 -0.702514
1 122.76 43.56 0 -0.223371 0.973065 0.0570005
1 126.72 43.56 0 0.625267 -0.623913 0.4688
1 130.68 43.56 0 -0.727877 -0.567638 0.384684
1 0 47.52 0 -0.711084 0.225519 -0.665959
1 3.96 47.52 0 -0.564517 0.808001 0.168684
1 7.92 47.52 0 -0.181346 0.671301 0.718658
1 11.88 47.52 0 0.326405 -0.0856774 0.941339
1 15.84 47.52 0 0.631543 -0.305998 -0.712404
1 19.8 47.52 0 0.0749676 -0.781898 0.618882
1 23.76 47.52 0 0.570161 0.811434 -0.128417
1 27.72 47.52 0 -0.395848 0.223587 0.890681
1 31.68 47.52 0 -0.332325 0.245061 0.910772
1 35.64 47.52 0 -0.767527 0.258388 -0.586632
1 39.6 47.52 0 0.049214 0.44018 0.89656
1 43.56 47.52 0 -0.256132 0.417673 -0.871749
1 47.52 47.52 0 0.0186179 -0.712679 0.701243
1 51.48 47.52 0 0.438848 -0.687801 -0.578223
1 55.44 47.52 0 -0.892299 -0.280838 0.353459
1 59.4 47.52 0 0.625849 -0.774662 0.0906218
1 63.36 47.52 0 0.289081 -0.518355 0.804823
1 67.32 47.52 0 0.0327151 -0.55518 0.831086
1 71.28 47.52 0 -0.578952 0.503173 0.641585
1 75.24 47.52 0 -0.618197 -0.451959 -0.643091
1 79.2 47.52 0 -0.263485 0.259303 0.929159
1 83.16 47.52 0 -0.722506 0.488187 -0.489549
1 87.12 47.52 0 0.0384337 -0.624152 -0.780357
1 91.08 47.52 0 -0.866867 0.451406 0.211597
1 95.04 47.52 0 -0.366753 -0.0763769 -0.927178
1 99 47.52 0 0.00515828 -0.877358 -0.479808
1 102.96 47.52 0 -0.897789 -0.14343 -0.416417
1 106.92 47.52 0 0.299417 0.891252 0.340616
1 110.88 47.52 0 -0.480145 0.347526 0.805411
1 114.84 47.52 0 0.669317 0.318566 -0.671216
1 118.8 47.52 0 0.0778192 -0.202928 0.976097
1 122.76 47.52 0 -0.538387 -0.713943 -0.447689
1 126.72 47.52 0 0.40815 0.522085 -0.748893
1 130.68 47.52 0 0.854264 -0.480535 0.198288
1 0 51.48 0 -0.785475 0.561355 -0.260596
1 3.96 51.48 0 -0.0193075 -0.51245 -0.8585
1 7.92 51.48 0 -0.639755 -0.640618 0.424643
1 11.88 51.48 0 -0.0328877 -0.952119 -0.303953
1 15.84 51.48 0 -0.432151 0.562632 0.704763
1 19.8 51.48 0 -0.703748 0.337912 0.624943
1 23.76 51.48 0 -0.223543 -0.461632 -0.858443
1 27.72 51.48 0 -0.931465 -0.244495 0.269436
1 31.68 51.48 0 0.234844 0.590088 0.772428
1 35.64 51.48 0 0.907287 -0.342957 0.243335
1 39.6 51.48 0 -0.183897 0.836419 0.516319
1 43.56 51.48 0 0.192263 0.843919 0.500834
1 47.52 51.48 0 -0.247863 0.961795 -0.116252
1 51.48 51.48 0 0.0909721 -0.823669 0.559726
1 55.44 51.48 0 -0.889277 0.100038 0.446295
1 59.4 51.48 0 0.938616 0.297751 -0.174196
1 63.36 51.48 0 0.967843 0.217115 0.127044
1 67.32 51.48 0 -0.469353 -0.823007 0.319948
1 71.28 51.48 0 0.0207468 -0.727372 -0.68593
1 75.24 51.48 0 -0.483875 0.873552 -0.052649
1 79.2 51.48 0 -0.383322 0.919379 0.088355
1 83.16 51.48 0 0.846596 0.230621 0.479676
1 87.12 51.48 0 0.535572 0.523623 -0.662556
1 91.08 51.48 0 0.380205 0.744686 -0.548531
1 95.04 51.48 0 -0.604424 -0.114901 -0.788334
1 99 51.48 0 0.529289 0.647346 -0.548449
1 102.96 51.48 0 -0.639199 -0.23855 -0.731108
1 106.92 51.48 0 -0.26797 -0.482036 -0.834166
1 110.88 51.48 0 0.0410509 0.976072 0.213535
1 114.84 51.48 0 -0.614004 -0.500201 0.610572
1 118.8 51.48 0 0.0145035 0.998864 0.0453871
1 122.76 51.48 0 -0.384762 -0.735174 -0.558101
1 126.72 51.48 0 -0.634489 0.530489 -0.562143
1 130.68 51.48 0 0.573548 0.656206 0.490344
1 0 55.44 0 0.872072 0.46336 0.157442
1 3.96 55.44 0 -0.34786 -0.488196 -0.800411
1 7.92 55.44 0 -0.70403 -0.588922 -0.396879
1 11.88 55.44 0 -0.581581 -0.766065 -0.273693
1 15.84 55.44 0 -0.555513 0.826211 0.0937081
1 19.8 55.44 0 0.5787 0.682732 -0.446076
1 23.76 55.44 0 -0.701789 -0.636005 -0.320921
1 27.72 55.44 0 0.697169 0.267398 -0.665172
1 31.68 55.44 0 0.59245 0.505588 -0.627203
1 35.64 55.44 0 -0.233396 -0.836061 0.496516
1 39.6 55.44 0 -0.62452 -0.603331 -0.49595
1 43.56 55.44 0 0.415483 0.610964 0.673867
1 47.52 55.44 0 -0.544865 -0.478995 -0.688249
1 51.48 55.44 0 -0.949649 0.310711 0.0403184
1 55.44 55.44 0 0.594203 0.798707 -0.0948148
1 59.4 55.44 0 -0.822713 0.328522 0.463914
1 63.36 55.44 0 0.761125 0.0349335 -0.647664
1 67.32 55.44 0 -0.65014 -0.466968 0.599382
1 71.28 55.44 0 -0.436757 -0.89421 -0.0981446
1 75.24 55.44 0 0.752002 -0.35625 0.554598
1 79.2 55.44 0 0.760362 -0.16508 0.628171
1 83.16 55.44 0 0.58234 -0.788704 0.197045
1 87.12 55.44 0 0.712006 -0.351961 0.607594
1 91.08 55.44 0 0.0591509 0.866284 0.496037
1 95.04 55.44 0 0.278576 -0.904428 -0.323119
1 99 55.44 0 0.717995 0.107489 -0.687699
1 102.96 55.44 0 -0.236025 -0.376954 -0.895655
1 106.92 55.44 0 0.806371 -0.58632 0.0774309
1 110.88 55.44 0 -0.383606 -0.869681 0.310648
1 114.84 55.44 0 -0.637832 -0.760812 -0.119733
1 118.8 55.44 0 -0.870153 -0.188403 0.455344
1 122.76 55.44 0 0.86948 0.472605 -0.143699
1 126.72 55.44 0 0.462058 -0.367297 0.807215
1 130.68 55.44 0 0.203877 -0.956942 0.206631
1 0 59.4 0 -0.48092 0.873979 0.0698269
1 3.96 59.4 0 0.860093 0.227414 -0.456643
1 7.92 59.4 0 0.74694 0.125662 0.652909
1 11.88 59.4 0 -0.526772 0.0310669 -0.849439
1 15.84 59.4 0 0.703133 0.632157 0.325548
1 19.8 59.4 0 -0.291816 -0.649053 0.702548
1 23.76 59.4 0 -0.700167 0.425348 0.57345
1 27.72 59.4 0 0.655141 -0.583109 0.48039
1 31.68 59.4 0 -0.380636 -0.558615 0.73693
1 35.64 59.4 0 0.128617 0.931477 0.340305
1 39.6 59.4 0 0.395288 0.490467 -0.776653
1 43.56 59.4 0 0.566169 0.515215 -0.643433
1 47.52 59.4 0 0.195624 0.506876 0.839528
1 51.48 59.4 0 -0.640941 0.75715 0.126167
1 55.44 59.4 0 -0.538214 -0.828887 -0.152552
1 59.4 59.4 0 0.162073 0.480738 -0.861756
1 63.36 59.4 0 0.67031 0.542671 -0.506156
1 67.32 59.4 0 0.137844 -0.647038 0.749893
1 71.28 59.4 0 0.0917428 0.269815 0.958532
1 75.24 59.4 0 0.225968 0.603439 0.764722
1 79.2 59.4 0 -0.727473 0.184918 0.660748
1 83.16 59.4 0 0.656216 0.399158 -0.640355
1 87.12 59.4 0 -0.722455 0.494937 -0.482801
1 91.08 59.4 0 -0.757399 0.648744 -0.0740144
1 95.04 59.4 0 0.496023 -0.786985 0.3669
1 99 59.4 0 -0.674084 0.161582 0.720765
1 102.96 59.4 0 0.00718737 0.998185 0.0597892
1 106.92 59.4 0 -0.724869 0.671456 0.15399
1 110.88 59.4 0 -0.651499 -0.348645 0.673792
1 114.84 59.4 0 -0.186148 -0.862454 0.470661
1 118.8 59.4 0 0.241971 0.240301 -0.940056
1 122.76 59.4 0 0.230317 -0.301359 0.925277
1 126.72 59.4 0 -0.277779 0.956092 0.0934141
1 130.68 59.4 0 0.855261 0.367795 -0.365042
1 0 63.36 0 0.637096 -0.629703 0.444503
1 3.96 63.36 0 -0.873475 0.476584 0.0995468
1 7.92 63.36 0 -0.457875 0.116981 0.881287
1 11.88 63.36 0 -0.303374 -0.167177 0.938092
1 15.84 63.36 0 -0.641165 -0.263408 -0.72078
1 19.8 63.36 0 0.809108 -0.363837 0.461484
1 23.76 63.36 0 -0.985789 0.145895 -0.0832696
1 27.72 63.36 0 0.7067 0.472415 0.526687
1 31.68 63.36 0 0.942611 -0.27874 -0.183818
1 35.64 63.36 0 0.650384 0.430931 0.625539
1 39.6 63.36 0 -0.0789441 0.323574 -0.942904
1 43.56 63.36 0 0.314811 -0.529149 -0.787969
1 47.52 63.36 0 -0.641812 -0.151279 -0.751793
1 51.48 63.36 0 -0.684826 0.663066 -0.302254
1 55.44 63.36 0 -0.782015 -0.621423 0.0478157
1 59.4 63.36 0 -0.314067 0.539139 -0.781467
1 63.36 63.36 0 -0.53901 0.390181 -0.746476
1 67.32 63.36 0 -0.668015 -0.740079 -0.0777105
1 71.28 63.36 0 -0.0429758 -0.138051 0.989492
1 75.24 63.36 0 0.70536 0.283508 0.649685
1 79.2 63.36 0 0.663205 -0.29733 -0.686843
1 83.16 63.36 0 -0.510285 0.810682 0.287061
1 87.12 63.36 0 0.280049 0.831868 0.479133
1 91.08 63.36 0 -0.658134 -0.0936171 0.747058
1 95.04 63.36 0 0.75833 -0.64868 -0.0644165
1 99 63.36 0 0.676777 0.725634 -0.12421
1 102.96 63.36 0 0.912648 0.408524 -0.0134684
1 106.92 63.36 0 -0.638198 0.0803279 -0.76567
1 110.88 63.36 0 -0.741225 -0.0796582 0.666514
1 114.84 63.36 0 0.217098 0.342988 0.913908
1 118.8 63.36 0 0.493602 -0.195753 -0.847371
1 122.76 63.36 0 0.694162 -0.219764 -0.685451
1 126.72 63.36 0 0.841426 -0.196689 -0.503305
1 130.68 63.36 0 -0.228309 -0.789086 -0.570279
1 0 67.32 0 -0.334448 0.735717 0.588952
1 3.96 67.32 0 0.645135 0.0940336 0.75826
1 7.92 67.32 0 0.530822 0.411167 0.74106
1 11.88 67.32 0 -0.449988 -0.888158 -0.0931994
1 15.84 67.32 0 -0.547394 -0.836046 0.037254
1 19.8 67.32 0 -0.637957 0.49604 0.589029
1 23.76 67.32 0 -0.496923 0.510836 0.701508
1 27.72 67.32 0 0.591188 -0.22512 0.774479
1 31.68 67.32 0 0.0631476 -0.997918 0.0130862
1 35.64 67.32 0 0.6523 0.410228 0.637352
1 39.6 67.32 0 -0.634526 0.121367 0.763313
1 43.56 67.32 0 0.342664 -0.935723 0.0836833
1 47.52 67.32 0 -0.00454974 -0.888281 0.459277
1 51.48 67.32 0 -0.446415 -0.623065 -0.642264
1 55.44 67.32 0 0.0418575 -0.902164 -0.429359
1 59.4 67.32 0 -0.512478 -0.418502 0.749815
1 63.36 67.32 0 0.698933 0.431956 -0.570006
1 67.32 67.32 0 -0.216065 0.713728 -0.666264
1 71.28 67.32 0 -0.800439 -0.117298 0.587826
1 75.24 67.32 0 0.602824 0.242397 -0.760163
1 79.2 67.32 0 -0.0934885 -0.780374 0.618285
1 83.16 67.32 0 0.982992 -0.0464281 0.177681
1 87.12 67.32 0 -0.831678 -0.549216 0.081686
1 91.08 67.32 0 -0.504352 -0.632508 -0.587845
1 95.04 67.32 0 0.503155 0.743801 0.439994
1 99 67.32 0 -0.450218 -0.385695 0.805322
1 102.96 67.32 0 -0.438987 0.691166 -0.574091
1 106.92 67.32 0 0.349977 0.910898 -0.218588
1 110.88 67.32 0 0.19615 -0.0686845 -0.978165
1 114.84 67.32 0 -0.377585 -0.924882 -0.0449842
1 118.8 67.32 0 0.163282 0.642877 0.748363
1 122.76 67.32 0 -0.884752 -0.453107 0.109123
1 126.72 67.32 0 -0.828802 0.531102 0.176117
1 130.68 67.32 0 -0.381174 -0.865314 -0.325481
1 0 71.28 0 -0.65147 -0.0660637 -0.755793
1 3.96 71.28 0 -0.142577 -0.979208 -0.144301
1 7.92 71.28 0 -0.931646 0.299186 0.206211
1 11.88 71.28 0 -0.104229 -0.549107 -0.829227
1 15.84 71.28 0 0.698433 -0.459139 -0.548984
1 19.8 71.28 0 0.107355 0.667177 0.737123
1 23.76 71.28 0 0.441917 -0.895668 0.0498867
1 27.72 71.28 0 -0.827235 0.168757 -0.535913
1 31.68 71.28 0 -0.759707 -0.218388 -0.612497
1 35.64 71.28 0 0.735741 0.596219 0.32126
1 39.6 71.28 0 -0.397696 -0.90622 -0.143538
1 43.56 71.28 0 -0.899701 -0.0449351 0.434187
1 47.52 71.28 0 -0.655315 -0.0534522 0.753462
1 51.48 71.28 0 -0.716468 -0.687192 0.120169
1 55.44 71.28 0 -0.874044 0.392738 0.286014
1 59.4 71.28 0 0.825248 -0.36231 0.43324
1 63.36 71.28 0 -0.674033 0.737461 -0.0427886
1 67.32 71.28 0 -0.313556 0.885931 0.341773
1 71.28 71.28 0 0.924377 -0.0785863 -0.373298
1 75.24 71.28 0 -0.129647 0.353084 -0.926565
1 79.2 71.28 0 0.911084 -0.407482 0.0623337
1 83.16 71.28 0 0.94995 0.285496 -0.126834
1 87.12 71.28 0 0.270709 -0.953957 0.129161
1 91.08 71.28 0 0.596242 -0.737229 0.317786
1 95.04 71.28 0 -0.520491 -0.622294 0.58467
1 99 71.28 0 -0.843301 -0.409663 0.347879
1 102.96 71.28 0 -0.215186 -0.853209 -0.47511
1 106.92 71.28 0 0.228551 -0.848962 -0.476475
1 110.88 71.28 0 -0.300199 0.550346 0.779102
1 114.84 71.28 0 0.869129 -0.0238989 -0.494007
1 118.8 71.28 0 0.421776 -0.713794 0.55911
1 122.76 71.28 0 0.436968 0.804119 -0.403053
1 126.72 71.28 0 0.329271 -0.713714 -0.618218
1 130.68 71.28 0 0.752552 -0.434178 0.49513
1 0 75.24 0 -0.573449 -0.672174 -0.468336
1 3.96 75.24 0 -0.547101 0.569968 0.613039
1 7.92 75.24 0 0.298999 0.803095 -0.515401
1 11.88 75.24 0 0.482156 -0.043534 0.875003
1 15.84 75.24 0 -0.553664 -0.398471 -0.731217
1 19.8 75.24 0 -0.4147 0.386129 0.823971
1 23.76 75.24 0 -0.810661 -0.581247 0.0705712
1 27.72 75.24 0 0.0270472 -0.41279 0.910424
1 31.68 75.24 0 0.133057 0.210899 0.96841
1 35.64 75.24 0 0.664037 0.130438 0.736235
1 39.6 75.24 0 0.436926 -0.650001 -0.621767
1 43.56 75.24 0 -0.0507578 0.703869 -0.708514
1 47.52 75.24 0 0.87049 -0.454449 0.189004
1 51.48 75.24 0 -0.705944 0.586642 -0.396857
1 55.44 75.24 0 -0.612081 0.297773 0.73259
1 59.4 75.24 0 0.514886 -0.705893 -0.486424
1 63.36 75.24 0 -0.650278 -0.72376 0.230892
1 67.32 75.24 0 -0.829586 0.204868 -0.519439
1 71.28 75.24 0 -0.662465 -0.712575 0.231033
1 75.24 75.24 0 0.790458 0.154299 -0.592763
1 79.2 75.24 0 -0.152927 0.813947 0.560449
1 83.16 75.24 0 0.653829 0.582074 0.483424
1 87.12 75.24 0 -0.889286 0.11662 -0.442233
1 91.08 75.24 0 0.228263 -0.643413 -0.730695
1 95.04 75.24 0 0.452616 0.626794 -0.634246
1 99 75.24 0 0.57621 0.714801 -0.396284
1 102.96 75.24 0 -0.360708 0.476726 -0.801637
1 106.92 75.24 0 -0.146132 -0.714206 -0.684511
1 110.88 75.24 0 0.609824 -0.445023 -0.655796
1 114.84 75.24 0 -0.60141 0.432783 0.671569
1 118.8 75.24 0 0.382262 -0.779007 0.497014
1 122.76 75.24 0 -0.148757 -0.220629 0.963947