ITEM: TIMESTEP
0
ITEM: NUMBER OF ATOMS
8
ITEM: BOX BOUNDS ff ff ff
0.0000000000000000e+00 6.0000000000000000e+00
0.0000000000000000e+00 6.0000000000000000e+00
0.0000000000000000e+00 6.0000000000000000e+00
ITEM: ATOMS type x y z c_outsp[1] c_outsp[2] c_outsp[3]
1 0 0 0 0.576308 0.571062 -0.5846
1 3 0 0 0.761166 0.504318 -0.407786
1 0 3 0 -0.670019 -0.324457 -0.667685
1 3 3 0 -0.428132 -0.640541 0.637503
1 0 0 3 0.764839 -0.305471 0.567193
1 3 0 3 -0.644879 0.713918 -0.272858
1 0 3 3 -0.398901 0.916509 0.0298316
1 3 3 3 0.104536 0.678169 0.727434
ITEM: TIMESTEP
100
ITEM: NUMBER OF ATOMS
8
ITEM: BOX BOUNDS ff ff ff
0.0000000000000000e+00 6.0000000000000000e+00
0.0000000000000000e+00 6.0000000000000000e+00
0.0000000000000000e+00 6.0000000000000000e+00
ITEM: ATOMS type x y z c_outsp[1] c_outsp[2] c_outsp[3]
1 0 0 0 0.966719 0.146258 -0.209913
1 3 0 0 0.134337 0.760514 -0.635274
1 0 3 0 -0.705828 -0.678355 -0.204061
1 3 3 0 -0.154509 -0.245363 0.957039
1 0 0 3 0.729343 -0.102836 -0.676375
1 3 0 3 -0.122026 0.555177 0.822732
1 0 3 3 -0.255385 0.962573 0.0907267
1 3 3 3 -0.636499 0.769161 -0.057096
ITEM: TIMESTEP
200
ITEM: NUMBER OF ATOMS
8
ITEM: BOX BOUNDS ff ff ff
0.0000000000000000e+00 6.0000000000000000e+00
0.0000000000000000e+00 6.0000000000000000e+00
0.0000000000000000e+00 6.0000000000000000e+00
ITEM: ATOMS type x y z c_outsp[1] c_outsp[2] c_outsp[3]
1 0 0 0 0.658704 -0.733564 -0.167314
1 3 0 0 -0.659736 0.653998 0.370182
1 0 3 0 -0.594387 -0.754667 -0.277816
1 3 3 0 -0.118004 0.85491 0.505177
1 0 0 3 0.0673621 0.800741 -0.595211
1 3 0 3 0.640479 0.766307 -0.0505963
1 0 3 3 0.1566 0.782348 -0.602833
1 3 3 3 -0.24425 -0.146843 0.95853
ITEM: TIMESTEP
300
ITEM: NUMBER OF ATOMS
8
ITEM: BOX BOUNDS ff ff ff
0.0000000000000000e+00 6.0000000000000000e+00
0.0000000000000000e+00 6.0000000000000000e+00
0.0000000000000000e+00 6.0000000000000000e+00
ITEM: ATOMS type x y z c_outsp[1] c_outsp[2] c_outsp[3]
1 0 0 0 0.779199 -0.62622 -0.02639
1 3 0 0 -0.169768 0.563526 0.808466
1 0 3 0 -0.908479 -0.415226 0.0474754
1 3 3 0 -0.898288 0.43021 -0.0894275
1 0 0 3 0.434889 0.877711 -0.201233
1 3 0 3 -0.328219 0.940596 0.0868967
1 0 3 3 -0.0207248 0.807429 -0.5896
1 3 3 3 0.921767 -0.349341 0.168247
ITEM: TIMESTEP
400
ITEM: NUMBER OF ATOMS
8
ITEM: BOX BOUNDS ff ff ff
0.0000000000000000e+00 6.0000000000000000e+00
0.0000000000000000e+00 6.0000000000000000e+00
0.0000000000000000e+00 6.0000000000000000e+00
ITEM: ATOMS type x y z c_outsp[1] c_outsp[2] c_outsp[3]
1 0 0 0 0.665356 -0.251561 -0.702865
1 3 0 0 -0.0902129 0.790263 0.606091
1 0 3 0 -0.870403 0.205377 0.447459
1 3 3 0 -0.988543 -0.150936 -0.000942595
1 0 0 3 0.329992 0.925845 -0.184163
1 3 0 3 0.00779131 0.367531 0.929979
1 0 3 3 -0.0087541 0.933315 -0.358951
1 3 3 3 0.705236 -0.530657 -0.470154
ITEM: TIMESTEP
500
ITEM: NUMBER OF ATOMS
8
ITEM: BOX BOUNDS ff ff ff
0.0000000000000000e+00 6.0000000000000000e+00
0.0000000000000000e+00 6.0000000000000000e+00
0.0000000000000000e+00 6.0000000000000000e+00
ITEM: ATOMS type x y z c_outsp[1] c_outsp[2] c_outsp[3]
1 0 0 0 -0.631062 -0.515043 -0.580079
1 3 0 0 -0.489993 0.840769 0.230248
1 0 3 0 -0.519014 0.834132 0.186677
1 3 3 0 -0.629101 -0.353088 0.692504
1 0 0 3 0.412364 0.908258 -0.0708782
1 3 0 3 0.816158 -0.214606 0.536499
1 0 3 3 -0.0187456 0.999746 -0.0125175
1 3 3 3 0.6959 -0.214143 -0.685468
ITEM: TIMESTEP
600
ITEM: NUMBER OF ATOMS
8
ITEM: BOX BOUNDS ff ff ff
0.0000000000000000e+00 6.0000000000000000e+00
0.0000000000000000e+00 6.0000000000000000e+00
0.0000000000000000e+00 6.0000000000000000e+00
ITEM: ATOMS type x y z c_outsp[1] c_outsp[2] c_outsp[3]
1 0 0 0 -0.381142 -0.0798636 0.921061
1 3 0 0 -0.903897 0.176455 -0.389658
1 0 3 0 -0.985703 0.0839236 0.146101
1 3 3 0 0.345739 0.41279 0.842656
1 0 0 3 0.216046 0.963825 0.156097
1 3 0 3 0.402573 -0.736945 -0.542998
1 0 3 3 0.450298 0.85037 -0.27222
1 3 3 3 0.353427 0.686771 -0.635166
ITEM: TIMESTEP
700
ITEM: NUMBER OF ATOMS
8
ITEM: BOX BOUNDS ff ff ff
0.0000000000000000e+00 6.0000000000000000e+00
0.0000000000000000e+00 6.0000000000000000e+00
0.0000000000000000e+00 6.0000000000000000e+00
ITEM: ATOMS type x y z c_outsp[1] c_outsp[2] c_outsp[3]
1 0 0 0 -0.244513 0.675646 0.695497
1 3 0 0 -0.892917 -0.403585 -0.199548
1 0 3 0 0.123755 -0.565076 0.815705
1 3 3 0 0.551423 0.803155 0.225553
1 0 0 3 0.27398 0.959325 -0.0680431
1 3 0 3 -0.568012 -0.792058 -0.223621
1 0 3 3 -0.281794 0.867449 -0.410029
1 3 3 3 0.38931 0.78095 -0.488421
ITEM: TIMESTEP
800
ITEM: NUMBER OF ATOMS
8
ITEM: BOX BOUNDS ff ff ff
0.0000000000000000e+00 6.0000000000000000e+00
0.0000000000000000e+00 6.0000000000000000e+00
0.0000000000000000e+00 6.0000000000000000e+00
ITEM: ATOMS type x y z c_outsp[1] c_outsp[2] c_outsp[3]
1 0 0 0 -0.381193 0.694146 0.610617
1 3 0 0 -0.116662 -0.809966 0.574757
1 0 3 0 0.860393 0.115536 -0.496363
1 3 3 0 0.57524 0.694621 0.431972
1 0 0 3 -0.653356 0.301526 -0.694413
1 3 0 3 -0.912566 -0.0792312 0.401181
1 0 3 3 0.369262 0.90168 0.224984
1 3 3 3 -0.503737 0.485319 -0.714642
ITEM: TIMESTEP
900
ITEM: NUMBER OF ATOMS
8
ITEM: BOX BOUNDS ff ff ff
0.0000000000000000e+00 6.0000000000000000e+00
0.0000000000000000e+00 6.0000000000000000e+00
0.0000000000000000e+00 6.0000000000000000e+00
ITEM: ATOMS type x y z c_outsp[1] c_outsp[2] c_outsp[3]
1 0 0 0 -0.26402 0.819747 0.508241
1 3 0 0 0.971865 -0.140865 0.188773
1 0 3 0 -0.289912 0.8961 -0.336089
1 3 3 0 0.823332 0.555094 0.118301
1 0 0 3 -0.932718 -0.233076 0.27516
1 3 0 3 -0.983364 0.109512 0.144924
1 0 3 3 0.71495 -0.0709069 -0.695571
1 3 3 3 -0.925591 0.33867 0.169068
ITEM: TIMESTEP
1000
ITEM: NUMBER OF ATOMS
8
ITEM: BOX BOUNDS ff ff ff
0.0000000000000000e+00 6.0000000000000000e+00
0.0000000000000000e+00 6.0000000000000000e+00
0.0000000000000000e+00 6.0000000000000000e+00
ITEM: ATOMS type x y z c_outsp[1] c_outsp[2] c_outsp[3]
1 0 0 0 -0.147549 0.822872 0.548736
1 3 0 0 0.646524 0.0964896 -0.756767
1 0 3 0 0.0825194 0.858235 0.506581
1 3 3 0 0.375733 0.67099 -0.639216
1 0 0 3 -0.824204 -0.106285 0.556229
1 3 0 3 -0.872204 -0.101192 0.478561
1 0 3 3 0.448781 -0.673988 -0.586801
1 3 3 3 -0.673378 0.65924 0.33461
ITEM: TIMESTEP
1100
ITEM: NUMBER OF ATOMS
8
ITEM: BOX BOUNDS ff ff ff
0.0000000000000000e+00 6.0000000000000000e+00
0.0000000000000000e+00 6.0000000000000000e+00
0.0000000000000000e+00 6.0000000000000000e+00
ITEM: ATOMS type x y z c_outsp[1] c_outsp[2] c_outsp[3]
1 0 0 0 -0.224018 0.859476 0.459475
1 3 0 0 -0.453828 -0.485587 -0.747158
1 0 3 0 0.783304 0.480772 0.394073
1 3 3 0 -0.339796 0.70668 -0.620598
1 0 0 3 -0.549452 -0.325018 0.769718
1 3 0 3 -0.662104 0.408679 0.628172
1 0 3 3 0.592973 -0.403062 -0.697082
1 3 3 3 -0.300056 0.923377 0.239461
ITEM: TIMESTEP
1200
ITEM: NUMBER OF ATOMS
8
ITEM: BOX BOUNDS ff ff ff
0.0000000000000000e+00 6.0000000000000000e+00
0.0000000000000000e+00 6.0000000000000000e+00
0.0000000000000000e+00 6.0000000000000000e+00
ITEM: ATOMS type x y z c_outsp[1] c_outsp[2] c_outsp[3]
1 0 0 0 -0.880283 0.375298 0.290264
1 3 0 0 -0.209957 -0.404337 0.890185
1 0 3 0 0.732605 -0.289528 -0.616006
1 3 3 0 -0.549227 0.799499 -0.243211
1 0 0 3 0.19478 0.295609 0.935241
1 3 0 3 -0.850412 0.00897534 0.52604
1 0 3 3 0.058328 0.430881 -0.900522
1 3 3 3 0.261353 0.851408 -0.454751
ITEM: TIMESTEP
1300
ITEM: NUMBER OF ATOMS
8
ITEM: BOX BOUNDS ff ff ff
0.0000000000000000e+00 6.0000000000000000e+00
0.0000000000000000e+00 6.0000000000000000e+00
0.0000000000000000e+00 6.0000000000000000e+00
ITEM: ATOMS type x y z c_outsp[1] c_outsp[2] c_outsp[3]
1 0 0 0 -0.761971 -0.375701 0.527494
1 3 0 0 -0.195099 0.741542 0.641912
1 0 3 0 -0.072831 -0.963342 -0.258201
1 3 3 0 -0.276353 0.958815 -0.0656008
1 0 0 3 0.033151 0.97449 0.221969
1 3 0 3 0.23588 -0.346298 0.907986
1 0 3 3 0.126372 0.699535 -0.703336
1 3 3 3 -0.464529 0.384576 -0.797693
ITEM: TIMESTEP
1400
ITEM: NUMBER OF ATOMS
8
ITEM: BOX BOUNDS ff ff ff
0.0000000000000000e+00 6.0000000000000000e+00
0.0000000000000000e+00 6.0000000000000000e+00
0.0000000000000000e+00 6.0000000000000000e+00
ITEM: ATOMS type x y z c_outsp[1] c_outsp[2] c_outsp[3]
1 0 0 0 -0.108249 -0.162963 0.980676
1 3 0 0 -0.383965 0.498131 0.777455
1 0 3 0 -0.437299 -0.819735 0.369871
1 3 3 0 -0.570813 0.379796 -0.727961
1 0 0 3 -0.221262 0.851189 0.475942
1 3 0 3 0.834724 0.400244 -0.378208
1 0 3 3 -0.18717 -0.0405982 -0.981488
1 3 3 3 -0.357622 0.93379 -0.011925
ITEM: TIMESTEP
1500
ITEM: NUMBER OF ATOMS
8
ITEM: BOX BOUNDS ff ff ff
0.0000000000000000e+00 6.0000000000000000e+00
0.0000000000000000e+00 6.0000000000000000e+00
0.0000000000000000e+00 6.0000000000000000e+00
ITEM: ATOMS type x y z c_outsp[1] c_outsp[2] c_outsp[3]
1 0 0 0 0.301608 0.537256 0.787647
1 3 0 0 0.0239227 0.863079 0.504502
1 0 3 0 -0.71305 -0.208157 0.6695
1 3 3 0 -0.839689 -0.455457 -0.295773
1 0 0 3 0.211497 0.957911 0.194104
1 3 0 3 -0.692765 0.651123 -0.310026
1 0 3 3 -0.662035 -0.465418 -0.587449
1 3 3 3 0.825809 0.106258 -0.553849
ITEM: TIMESTEP
1600
ITEM: NUMBER OF ATOMS
8
ITEM: BOX BOUNDS ff ff ff
0.0000000000000000e+00 6.0000000000000000e+00
0.0000000000000000e+00 6.0000000000000000e+00
0.0000000000000000e+00 6.0000000000000000e+00
ITEM: ATOMS type x y z c_outsp[1] c_outsp[2] c_outsp[3]
1 0 0 0 0.404855 0.83876 -0.364107
1 3 0 0 -0.327437 0.943077 -0.0582375
1 0 3 0 -0.838132 0.371502 0.3994
1 3 3 0 -0.61626 -0.775963 0.134555
1 0 0 3 -0.16675 0.85923 -0.483651
1 3 0 3 -0.183188 0.616571 0.765691
1 0 3 3 -0.795055 -0.545352 -0.265476
1 3 3 3 0.891498 -0.355132 0.28127
ITEM: TIMESTEP
1700
ITEM: NUMBER OF ATOMS
8
ITEM: BOX BOUNDS ff ff ff
0.0000000000000000e+00 6.0000000000000000e+00
0.0000000000000000e+00 6.0000000000000000e+00
0.0000000000000000e+00 6.0000000000000000e+00
ITEM: ATOMS type x y z c_outsp[1] c_outsp[2] c_outsp[3]
1 0 0 0 -0.698649 0.0353715 -0.71459
1 3 0 0 -0.623573 0.78172 0.00842023
1 0 3 0 -0.728103 0.361903 -0.582145
1 3 3 0 0.286611 -0.649066 0.704676
1 0 0 3 -0.395876 0.603313 -0.692312
1 3 0 3 0.69911 0.663272 0.267048
1 0 3 3 -0.566324 -0.442816 0.695119
1 3 3 3 0.315615 0.543835 0.77758
ITEM: TIMESTEP
1800
ITEM: NUMBER OF ATOMS
8
ITEM: BOX BOUNDS ff ff ff
0.0000000000000000e+00 6.0000000000000000e+00
0.0000000000000000e+00 6.0000000000000000e+00
0.0000000000000000e+00 6.0000000000000000e+00
ITEM: ATOMS type x y z c_outsp[1] c_outsp[2] c_outsp[3]
1 0 0 0 -0.928067 0.288113 -0.235974
1 3 0 0 -0.490975 0.761652 0.422882
1 0 3 0 -0.528943 -0.533307 -0.660154
1 3 3 0 0.839561 0.168089 0.516607
1 0 0 3 -0.859845 0.185347 -0.475724
1 3 0 3 0.0744235 0.465105 -0.882122
1 0 3 3 -0.171462 0.451531 0.875626
1 3 3 3 0.219531 0.0740655 0.97279
ITEM: TIMESTEP
1900
ITEM: NUMBER OF ATOMS
8
ITEM: BOX BOUNDS ff ff ff
0.0000000000000000e+00 6.0000000000000000e+00
0.0000000000000000e+00 6.0000000000000000e+00
0.0000000000000000e+00 6.0000000000000000e+00
ITEM: ATOMS type x y z c_outsp[1] c_outsp[2] c_outsp[3]
1 0 0 0 -0.970509 -0.0246294 -0.239804
1 3 0 0 0.170209 0.980941 0.0937165
1 0 3 0 -0.346785 -0.91828 0.191053
1 3 3 0 0.547478 0.676204 0.492966
1 0 0 3 -0.929978 0.362841 -0.0590527
1 3 0 3 -0.758016 -0.112153 -0.642521
1 0 3 3 -0.578478 0.758408 0.300301
1 3 3 3 0.91991 0.134353 0.368396
ITEM: TIMESTEP
2000
ITEM: NUMBER OF ATOMS
8
ITEM: BOX BOUNDS ff ff ff
0.0000000000000000e+00 6.0000000000000000e+00
0.0000000000000000e+00 6.0000000000000000e+00
0.0000000000000000e+00 6.0000000000000000e+00
ITEM: ATOMS type x y z c_outsp[1] c_outsp[2] c_outsp[3]
1 0 0 0 -0.986848 -0.10083 0.126351
1 3 0 0 -0.258197 0.548786 -0.79509
1 0 3 0 0.554385 -0.323319 0.766891
1 3 3 0 0.700164 0.20216 0.684764
1 0 0 3 -0.988983 -0.0750709 -0.127579
1 3 0 3 -0.840377 0.459221 0.287893
1 0 3 3 -0.749489 0.616133 0.242172
1 3 3 3 0.565329 0.471303 -0.676961
ITEM: TIMESTEP
2100
ITEM: NUMBER OF ATOMS
8
ITEM: BOX BOUNDS ff ff ff
0.0000000000000000e+00 6.0000000000000000e+00
0.0000000000000000e+00 6.0000000000000000e+00
0.0000000000000000e+00 6.0000000000000000e+00
ITEM: ATOMS type x y z c_outsp[1] c_outsp[2] c_outsp[3]
1 0 0 0 -0.893687 -0.244714 0.376084
1 3 0 0 -0.73323 -0.104357 -0.671925
1 0 3 0 0.562209 0.654942 0.504947
1 3 3 0 0.860591 -0.445171 0.247398
1 0 0 3 -0.521039 0.170403 0.83635
1 3 0 3 -0.145871 0.876594 -0.458589
1 0 3 3 -0.726806 0.517589 0.451503
1 3 3 3 -0.530769 0.307784 -0.789654
ITEM: TIMESTEP
2200
ITEM: NUMBER OF ATOMS
8
ITEM: BOX BOUNDS ff ff ff
0.0000000000000000e+00 6.0000000000000000e+00
0.0000000000000000e+00 6.0000000000000000e+00
0.0000000000000000e+00 6.0000000000000000e+00
ITEM: ATOMS type x y z c_outsp[1] c_outsp[2] c_outsp[3]
1 0 0 0 -0.102769 0.100458 0.989619
1 3 0 0 -0.447572 -0.21718 -0.867475
1 0 3 0 -0.572781 0.729774 0.373298
1 3 3 0 0.569495 -0.743072 0.351454
1 0 0 3 -0.350476 0.730469 0.586158
1 3 0 3 -0.384017 -0.0733899 -0.920405
1 0 3 3 -0.182707 0.797738 0.574658
1 3 3 3 -0.753311 0.256794 -0.605459
ITEM: TIMESTEP
2300
ITEM: NUMBER OF ATOMS
8
ITEM: BOX BOUNDS ff ff ff
0.0000000000000000e+00 6.0000000000000000e+00
0.0000000000000000e+00 6.0000000000000000e+00
0.0000000000000000e+00 6.0000000000000000e+00
ITEM: ATOMS type x y z c_outsp[1] c_outsp[2] c_outsp[3]
1 0 0 0 0.200156 0.833667 0.51472
1 3 0 0 -0.0639584 -0.482353 -0.873639
1 0 3 0 -0.360659 -0.208551 0.909083
1 3 3 0 0.155369 -0.127602 0.97958
1 0 0 3 -0.0359619 0.949887 0.310517
1 3 0 3 -0.904223 -0.230945 -0.359229
1 0 3 3 -0.47293 0.783445 -0.403176
1 3 3 3 -0.826898 -0.100546 -0.55329
ITEM: TIMESTEP
2400
ITEM: NUMBER OF ATOMS
8
ITEM: BOX BOUNDS ff ff ff
0.0000000000000000e+00 6.0000000000000000e+00
0.0000000000000000e+00 6.0000000000000000e+00
0.0000000000000000e+00 6.0000000000000000e+00
ITEM: ATOMS type x y z c_outsp[1] c_outsp[2] c_outsp[3]
1 0 0 0 0.211431 0.762486 0.611484
1 3 0 0 0.0833492 -0.965893 -0.245162
1 0 3 0 0.628676 0.461633 0.625829
1 3 3 0 -0.66508 0.227761 0.711192
1 0 0 3 -0.121679 0.653252 -0.7473
1 3 0 3 -0.826156 0.213148 -0.521568
1 0 3 3 -0.90819 0.235113 -0.346285
1 3 3 3 -0.845581 -0.317234 0.429367
ITEM: TIMESTEP
2500
ITEM: NUMBER OF ATOMS
8
ITEM: BOX BOUNDS ff ff ff
0.0000000000000000e+00 6.0000000000000000e+00
0.0000000000000000e+00 6.0000000000000000e+00
0.0000000000000000e+00 6.0000000000000000e+00
ITEM: ATOMS type x y z c_outsp[1] c_outsp[2] c_outsp[3]
1 0 0 0 0.569131 0.410982 0.712168
1 3 0 0 0.58432 -0.736489 0.340812
1 0 3 0 -0.248597 0.877213 -0.410727
1 3 3 0 -0.603555 -0.12453 0.787536
1 0 0 3 -0.658515 -0.14265 -0.738924
1 3 0 3 -0.556983 -0.131038 -0.820121
1 0 3 3 -0.794252 0.461261 0.395477
1 3 3 3 -0.760461 0.594374 0.261569
ITEM: TIMESTEP
2600
ITEM: NUMBER OF ATOMS
8
ITEM: BOX BOUNDS ff ff ff
0.0000000000000000e+00 6.0000000000000000e+00
0.0000000000000000e+00 6.0000000000000000e+00
0.0000000000000000e+00 6.0000000000000000e+00
ITEM: ATOMS type x y z c_outsp[1] c_outsp[2] c_outsp[3]
1 0 0 0 0.464764 0.711048 0.527641
1 3 0 0 0.932198 -0.142467 0.332732
1 0 3 0 -0.951901 -0.0684151 0.29867
1 3 3 0 -0.347445 0.362531 0.864785
1 0 0 3 -0.972634 -0.196076 -0.124646
1 3 0 3 -0.448463 -0.660924 -0.601714
1 0 3 3 -0.41973 0.542981 -0.727323
1 3 3 3 -0.814932 0.574327 -0.0776812
ITEM: TIMESTEP
2700
ITEM: NUMBER OF ATOMS
8
ITEM: BOX BOUNDS ff ff ff
0.0000000000000000e+00 6.0000000000000000e+00
0.0000000000000000e+00 6.0000000000000000e+00
0.0000000000000000e+00 6.0000000000000000e+00
ITEM: ATOMS type x y z c_outsp[1] c_outsp[2] c_outsp[3]
1 0 0 0 -0.045998 0.997459 0.0544061
1 3 0 0 0.800476 0.527373 -0.284808
1 0 3 0 -0.35853 0.0398943 0.932665
1 3 3 0 -0.112136 0.559928 0.820918
1 0 0 3 -0.960105 0.153107 -0.234002
1 3 0 3 -0.79568 -0.587814 0.146178
1 0 3 3 -0.661236 -0.729682 -0.174159
1 3 3 3 -0.551248 0.111678 -0.826834
ITEM: TIMESTEP
2800
ITEM: NUMBER OF ATOMS
8
ITEM: BOX BOUNDS ff ff ff
0.0000000000000000e+00 6.0000000000000000e+00
0.0000000000000000e+00 6.0000000000000000e+00
0.0000000000000000e+00 6.0000000000000000e+00
ITEM: ATOMS type x y z c_outsp[1] c_outsp[2] c_outsp[3]
1 0 0 0 -0.242735 0.838999 -0.486992
1 3 0 0 -0.49207 0.305722 -0.815108
1 0 3 0 0.117608 0.499347 0.858382
1 3 3 0 0.229012 0.616051 0.753681
1 0 0 3 -0.946088 -0.271122 0.177227
1 3 0 3 -0.805674 0.59141 -0.0335248
1 0 3 3 -0.684145 -0.65064 0.329566
1 3 3 3 0.073453 -0.954334 -0.289571
ITEM: TIMESTEP
2900
ITEM: NUMBER OF ATOMS
8
ITEM: BOX BOUNDS ff ff ff
0.0000000000000000e+00 6.0000000000000000e+00
0.0000000000000000e+00 6.0000000000000000e+00
0.0000000000000000e+00 6.0000000000000000e+00
ITEM: ATOMS type x y z c_outsp[1] c_outsp[2] c_outsp[3]
1 0 0 0 -0.915578 -0.188877 -0.355026
1 3 0 0 -0.930564 0.358398 -0.0748362
1 0 3 0 0.0189998 0.936749 0.349487
1 3 3 0 0.039219 0.839483 0.541968
1 0 0 3 -0.820184 0.572003 0.01051
1 3 0 3 -0.607627 0.0116997 -0.794136
1 0 3 3 -0.0556751 -0.846065 0.530165
1 3 3 3 0.479644 -0.836622 0.264585
ITEM: TIMESTEP
3000
ITEM: NUMBER OF ATOMS
8
ITEM: BOX BOUNDS ff ff ff
0.0000000000000000e+00 6.0000000000000000e+00
0.0000000000000000e+00 6.0000000000000000e+00
0.0000000000000000e+00 6.0000000000000000e+00
ITEM: ATOMS type x y z c_outsp[1] c_outsp[2] c_outsp[3]
1 0 0 0 -0.53335 0.642226 0.55053
1 3 0 0 -0.963832 0.265375 0.0245781
1 0 3 0 -0.845703 0.533651 -0.00153096
1 3 3 0 -0.177505 0.984048 -0.0119232
1 0 0 3 -0.494032 -0.113549 -0.861997
1 3 0 3 -0.650209 -0.444537 -0.616129
1 0 3 3 0.171375 -0.599952 0.781466
1 3 3 3 0.613542 -0.528618 0.586625
ITEM: TIMESTEP
3100
ITEM: NUMBER OF ATOMS
8
ITEM: BOX BOUNDS ff ff ff
0.0000000000000000e+00 6.0000000000000000e+00
0.0000000000000000e+00 6.0000000000000000e+00
0.0000000000000000e+00 6.0000000000000000e+00
ITEM: ATOMS type x y z c_outsp[1] c_outsp[2] c_outsp[3]
1 0 0 0 -0.447065 0.660328 -0.603406
1 3 0 0 -0.435705 0.895631 -0.0894719
1 0 3 0 -0.757857 0.402374 0.513565
1 3 3 0 -0.957253 0.165964 -0.236902
1 0 0 3 -0.327811 -0.762897 -0.557251
1 3 0 3 -0.46933 -0.764664 -0.441608
1 0 3 3 -0.0657933 -0.13793 0.988254
1 3 3 3 0.435449 0.166719 0.884641
ITEM: TIMESTEP
3200
ITEM: NUMBER OF ATOMS
8
ITEM: BOX BOUNDS ff ff ff
0.0000000000000000e+00 6.0000000000000000e+00
0.0000000000000000e+00 6.0000000000000000e+00
0.0000000000000000e+00 6.0000000000000000e+00
ITEM: ATOMS type x y z c_outsp[1] c_outsp[2] c_outsp[3]
1 0 0 0 -0.431237 0.181807 -0.883731
1 3 0 0 0.144007 0.0609018 -0.987701
1 0 3 0 -0.840148 0.433592 0.325805
1 3 3 0 -0.463376 0.145165 0.874191
1 0 0 3 -0.316076 -0.944141 0.0932415
1 3 0 3 -0.664473 -0.740457 -0.100987
1 0 3 3 -0.0100258 0.620105 0.784454
1 3 3 3 -0.544853 0.782887 0.300372
ITEM: TIMESTEP
3300
ITEM: NUMBER OF ATOMS
8
ITEM: BOX BOUNDS ff ff ff
0.0000000000000000e+00 6.0000000000000000e+00
0.0000000000000000e+00 6.0000000000000000e+00
0.0000000000000000e+00 6.0000000000000000e+00
ITEM: ATOMS type x y z c_outsp[1] c_outsp[2] c_outsp[3]
1 0 0 0 0.093098 -0.424913 -0.900434
1 3 0 0 0.254796 -0.716848 -0.649006
1 0 3 0 -0.292822 0.674297 0.677922
1 3 3 0 -0.159662 0.864719 0.476203
1 0 0 3 -0.656589 -0.20196 0.726707
1 3 0 3 -0.735878 -0.66688 0.11728
1 0 3 3 -0.802809 0.526412 -0.279977
1 3 3 3 -0.889876 0.391292 0.234545
ITEM: TIMESTEP
3400
ITEM: NUMBER OF ATOMS
8
ITEM: BOX BOUNDS ff ff ff
0.0000000000000000e+00 6.0000000000000000e+00
0.0000000000000000e+00 6.0000000000000000e+00
0.0000000000000000e+00 6.0000000000000000e+00
ITEM: ATOMS type x y z c_outsp[1] c_outsp[2] c_outsp[3]
1 0 0 0 0.0999578 -0.710822 -0.696233
1 3 0 0 0.260907 -0.957283 -0.124646
1 0 3 0 0.0986496 0.994008 0.0470803
1 3 3 0 -0.252769 0.965812 0.0575831
1 0 0 3 -0.926433 0.288471 -0.241883
1 3 0 3 -0.759157 -0.278578 0.588281
1 0 3 3 -0.761554 0.034352 0.64719
1 3 3 3 -0.991931 0.0250841 0.124274
ITEM: TIMESTEP
3500
ITEM: NUMBER OF ATOMS
8
ITEM: BOX BOUNDS ff ff ff
0.0000000000000000e+00 6.0000000000000000e+00
0.0000000000000000e+00 6.0000000000000000e+00
0.0000000000000000e+00 6.0000000000000000e+00
ITEM: ATOMS type x y z c_outsp[1] c_outsp[2] c_outsp[3]
1 0 0 0 -0.103109 -0.947012 -0.3042
1 3 0 0 -0.00262635 -0.632466 0.774583
1 0 3 0 -0.0340222 0.794922 -0.605757
1 3 3 0 -0.656909 0.697494 -0.286308
1 0 0 3 -0.790048 -0.490941 -0.367152
1 3 0 3 -0.944659 -0.322761 -0.058691
1 0 3 3 -0.392721 0.83511 0.385178
1 3 3 3 -0.363648 0.299274 0.882154
ITEM: TIMESTEP
3600
ITEM: NUMBER OF ATOMS
8
ITEM: BOX BOUNDS ff ff ff
0.0000000000000000e+00 6.0000000000000000e+00
0.0000000000000000e+00 6.0000000000000000e+00
0.0000000000000000e+00 6.0000000000000000e+00
ITEM: ATOMS type x y z c_outsp[1] c_outsp[2] c_outsp[3]
1 0 0 0 -0.349111 -0.790021 0.503972
1 3 0 0 -0.840934 0.222023 0.493494
1 0 3 0 -0.332991 -0.0378819 -0.942169
1 3 3 0 -0.901189 0.38648 0.196192
1 0 0 3 -0.436316 -0.87257 -0.219658
1 3 0 3 -0.37038 -0.749287 0.548987
1 0 3 3 0.0864403 0.962644 -0.256603
1 3 3 3 -0.181175 0.983451 -5.99775e-06
ITEM: TIMESTEP
3700
ITEM: NUMBER OF ATOMS
8
ITEM: BOX BOUNDS ff ff ff
0.0000000000000000e+00 6.0000000000000000e+00
0.0000000000000000e+00 6.0000000000000000e+00
0.0000000000000000e+00 6.0000000000000000e+00
ITEM: ATOMS type x y z c_outsp[1] c_outsp[2] c_outsp[3]
1 0 0 0 -0.991324 -0.118619 0.0566262
1 3 0 0 -0.800319 -0.177123 0.572815
1 0 3 0 -0.840464 -0.489991 -0.231363
1 3 3 0 -0.677539 0.563213 -0.473003
1 0 0 3 0.202741 -0.963158 0.176697
1 3 0 3 -0.458231 0.063982 0.886527
1 0 3 3 0.749482 0.291591 -0.59435
1 3 3 3 -0.559767 0.814178 -0.154194
ITEM: TIMESTEP
3800
ITEM: NUMBER OF ATOMS
8
ITEM: BOX BOUNDS ff ff ff
0.0000000000000000e+00 6.0000000000000000e+00
0.0000000000000000e+00 6.0000000000000000e+00
0.0000000000000000e+00 6.0000000000000000e+00
ITEM: ATOMS type x y z c_outsp[1] c_outsp[2] c_outsp[3]
1 0 0 0 -0.647245 -0.760479 0.0523897
1 3 0 0 -0.917689 0.38538 0.0965935
1 0 3 0 -0.892472 0.140725 -0.42859
1 3 3 0 -0.975677 -0.188656 0.111643
1 0 0 3 0.273154 -0.783347 0.55835
1 3 0 3 -0.47475 0.464078 0.747826
1 0 3 3 0.804654 -0.182958 -0.564853
1 3 3 3 -0.548492 0.76116 -0.346109
ITEM: TIMESTEP
3900
ITEM: NUMBER OF ATOMS
8
ITEM: BOX BOUNDS ff ff ff
0.0000000000000000e+00 6.0000000000000000e+00
0.0000000000000000e+00 6.0000000000000000e+00
0.0000000000000000e+00 6.0000000000000000e+00
ITEM: ATOMS type x y z c_outsp[1] c_outsp[2] c_outsp[3]
1 0 0 0 -0.759172 -0.549828 0.348348
1 3 0 0 -0.880367 -0.196407 0.431715
1 0 3 0 -0.48091 -0.336616 -0.809577
1 3 3 0 -0.621811 0.754506 -0.209933
1 0 0 3 0.222622 -0.434402 0.872774
1 3 0 3 -0.736798 0.675662 -0.0246991
1 0 3 3 0.715518 -0.690418 -0.10657
1 3 3 3 -0.844178 0.454003 -0.285034
ITEM: TIMESTEP
4000
ITEM: NUMBER OF ATOMS
8
ITEM: BOX BOUNDS ff ff ff
0.0000000000000000e+00 6.0000000000000000e+00
0.0000000000000000e+00 6.0000000000000000e+00
0.0000000000000000e+00 6.0000000000000000e+00
ITEM: ATOMS type x y z c_outsp[1] c_outsp[2] c_outsp[3]
1 0 0 0 -0.568008 -0.48734 0.663225
1 3 0 0 -0.769572 0.637443 0.0377494
1 0 3 0 0.000660053 -0.670569 -0.741847
1 3 3 0 -0.574019 0.184274 -0.797837
1 0 0 3 -0.5192 0.100784 0.84869
1 3 0 3 -0.947909 -0.170065 0.269344
1 0 3 3 0.658537 -0.559148 0.503669
1 3 3 3 -0.65365 0.528062 -0.542118
ITEM: TIMESTEP
4100
ITEM: NUMBER OF ATOMS
8
ITEM: BOX BOUNDS ff ff ff
0.0000000000000000e+00 6.0000000000000000e+00
0.0000000000000000e+00 6.0000000000000000e+00
0.0000000000000000e+00 6.0000000000000000e+00
ITEM: ATOMS type x y z c_outsp[1] c_outsp[2] c_outsp[3]
1 0 0 0 -0.864957 0.132616 0.484006
1 3 0 0 -0.966567 -0.000905209 -0.256412
1 0 3 0 0.559962 -0.796136 -0.229369
1 3 3 0 -0.27048 -0.0273364 -0.962337
1 0 0 3 -0.427449 -0.296769 0.853941
1 3 0 3 -0.725808 0.677426 0.119569
1 0 3 3 0.0864038 -0.151087 0.984737
1 3 3 3 -0.721669 -0.0755028 -0.688108
ITEM: TIMESTEP
4200
ITEM: NUMBER OF ATOMS
8
ITEM: BOX BOUNDS ff ff ff
0.0000000000000000e+00 6.0000000000000000e+00
0.0000000000000000e+00 6.0000000000000000e+00
0.0000000000000000e+00 6.0000000000000000e+00
ITEM: ATOMS type x y z c_outsp[1] c_outsp[2] c_outsp[3]
1 0 0 0 -0.858741 -0.37988 0.343883
1 3 0 0 -0.79335 0.341764 -0.50378
1 0 3 0 0.63626 -0.450411 0.626341
1 3 3 0 0.15081 -0.708419 -0.689491
1 0 0 3 -0.290232 0.806703 0.514777
1 3 0 3 -0.891659 0.133508 -0.432574
1 0 3 3 -0.407408 -0.00700068 0.913219
1 3 3 3 -0.80248 -0.374014 -0.464908
ITEM: TIMESTEP
4300
ITEM: NUMBER OF ATOMS
8
ITEM: BOX BOUNDS ff ff ff
0.0000000000000000e+00 6.0000000000000000e+00
0.0000000000000000e+00 6.0000000000000000e+00
0.0000000000000000e+00 6.0000000000000000e+00
ITEM: ATOMS type x y z c_outsp[1] c_outsp[2] c_outsp[3]
1 0 0 0 -0.577186 0.00274231 0.816608
1 3 0 0 -0.174067 -0.450439 -0.875674
1 0 3 0 -0.0554658 0.392243 0.918188
1 3 3 0 0.118934 -0.991144 -0.0590647
1 0 0 3 -0.93586 0.124494 -0.329647
1 3 0 3 -0.621442 0.339834 -0.70592
1 0 3 3 -0.419576 0.508544 0.751891
1 3 3 3 -0.59306 -0.771213 -0.231325
ITEM: TIMESTEP
4400
ITEM: NUMBER OF ATOMS
8
ITEM: BOX BOUNDS ff ff ff
0.0000000000000000e+00 6.0000000000000000e+00
0.0000000000000000e+00 6.0000000000000000e+00
0.0000000000000000e+00 6.0000000000000000e+00
ITEM: ATOMS type x y z c_outsp[1] c_outsp[2] c_outsp[3]
1 0 0 0 -0.712351 0.560658 0.422161
1 3 0 0 0.268889 -0.805466 -0.528132
1 0 3 0 -0.569755 0.692255 0.442902
1 3 3 0 -0.0771502 -0.768074 0.635696
1 0 0 3 -0.931378 0.0904449 0.35264
1 3 0 3 0.390032 -0.622042 -0.678925
1 0 3 3 -0.862374 0.418013 -0.285614
1 3 3 3 -0.742846 -0.668042 -0.0435898
ITEM: TIMESTEP
4500
ITEM: NUMBER OF ATOMS
8
ITEM: BOX BOUNDS ff ff ff
0.0000000000000000e+00 6.0000000000000000e+00
0.0000000000000000e+00 6.0000000000000000e+00
0.0000000000000000e+00 6.0000000000000000e+00
ITEM: ATOMS type x y z c_outsp[1] c_outsp[2] c_outsp[3]
1 0 0 0 -0.682545 0.730832 0.00401763
1 3 0 0 0.875678 -0.476566 0.0779357
1 0 3 0 -0.908789 0.228659 -0.349024
1 3 3 0 -0.697841 -0.232541 0.677453
1 0 0 3 -0.933978 0.35656 -0.0234656
1 3 0 3 0.442522 -0.83502 0.326978
1 0 3 3 -0.956784 -0.195611 -0.215174
1 3 3 3 -0.347327 -0.923439 -0.163171
ITEM: TIMESTEP
4600
ITEM: NUMBER OF ATOMS
8
ITEM: BOX BOUNDS ff ff ff
0.0000000000000000e+00 6.0000000000000000e+00
0.0000000000000000e+00 6.0000000000000000e+00
0.0000000000000000e+00 6.0000000000000000e+00
ITEM: ATOMS type x y z c_outsp[1] c_outsp[2] c_outsp[3]
1 0 0 0 -0.602249 0.627224 -0.493849
1 3 0 0 0.900421 0.18829 0.39216
1 0 3 0 -0.991911 -0.0992026 -0.0791864
1 3 3 0 -0.883066 -0.469222 -0.0050111
1 0 0 3 -0.876018 0.0637069 -0.478052
1 3 0 3 0.328572 -0.720589 0.610567
1 0 3 3 -0.816208 -0.512917 -0.265932
1 3 3 3 -0.215192 -0.666651 0.713631
ITEM: TIMESTEP
4700
ITEM: NUMBER OF ATOMS
8
ITEM: BOX BOUNDS ff ff ff
0.0000000000000000e+00 6.0000000000000000e+00
0.0000000000000000e+00 6.0000000000000000e+00
0.0000000000000000e+00 6.0000000000000000e+00
ITEM: ATOMS type x y z c_outsp[1] c_outsp[2] c_outsp[3]
1 0 0 0 -0.529506 0.382328 -0.757264
1 3 0 0 0.535312 0.635487 0.556415
1 0 3 0 -0.815745 -0.255162 -0.519087
1 3 3 0 -0.434206 -0.834729 0.338664
1 0 0 3 -0.59841 -0.503728 -0.623028
1 3 0 3 0.37753 -0.227588 0.897594
1 0 3 3 -0.941902 -0.299761 0.151542
1 3 3 3 -0.70481 -0.575278 0.415087
ITEM: TIMESTEP
4800
ITEM: NUMBER OF ATOMS
8
ITEM: BOX BOUNDS ff ff ff
0.0000000000000000e+00 6.0000000000000000e+00
0.0000000000000000e+00 6.0000000000000000e+00
0.0000000000000000e+00 6.0000000000000000e+00
ITEM: ATOMS type x y z c_outsp[1] c_outsp[2] c_outsp[3]
1 0 0 0 -0.262313 -0.304231 -0.91577
1 3 0 0 -0.0812907 0.955911 0.28218
1 0 3 0 -0.720141 -0.522012 -0.457057
1 3 3 0 -0.302532 -0.518781 0.799588
1 0 0 3 -0.72343 -0.6864 -0.0741853
1 3 0 3 -0.135726 0.43117 0.892004
1 0 3 3 -0.493108 -0.54207 -0.680444
1 3 3 3 -0.284038 -0.716205 0.637474
ITEM: TIMESTEP
4900
ITEM: NUMBER OF ATOMS
8
ITEM: BOX BOUNDS ff ff ff
0.0000000000000000e+00 6.0000000000000000e+00
0.0000000000000000e+00 6.0000000000000000e+00
0.0000000000000000e+00 6.0000000000000000e+00
ITEM: ATOMS type x y z c_outsp[1] c_outsp[2] c_outsp[3]
1 0 0 0 -0.56528 -0.787646 -0.245096
1 3 0 0 -0.667995 0.583182 -0.462257
1 0 3 0 0.132646 -0.818984 -0.558274
1 3 3 0 -0.483227 0.0615953 0.873326
1 0 0 3 -0.792296 -0.571424 -0.213876
1 3 0 3 -0.602377 0.786517 0.136132
1 0 3 3 0.0836804 -0.996458 -0.00833581
1 3 3 3 -0.0451258 -0.317566 0.947162
ITEM: TIMESTEP
5000
ITEM: NUMBER OF ATOMS
8
ITEM: BOX BOUNDS ff ff ff
0.0000000000000000e+00 6.0000000000000000e+00
0.0000000000000000e+00 6.0000000000000000e+00
0.0000000000000000e+00 6.0000000000000000e+00
ITEM: ATOMS type x y z c_outsp[1] c_outsp[2] c_outsp[3]
1 0 0 0 -0.671347 -0.625208 -0.398006
1 3 0 0 -0.815184 -0.334834 -0.472611
1 0 3 0 0.529675 -0.528185 0.663675
1 3 3 0 -0.873479 -0.0217563 0.486375
1 0 0 3 -0.77996 -0.567738 -0.263316
1 3 0 3 -0.573726 0.196524 -0.79512
1 0 3 3 0.416273 -0.78808 0.453483
1 3 3 3 -0.236343 0.456616 0.857697
ITEM: TIMESTEP
5100
ITEM: NUMBER OF ATOMS
8
ITEM: BOX BOUNDS ff ff ff
0.0000000000000000e+00 6.0000000000000000e+00
0.0000000000000000e+00 6.0000000000000000e+00
0.0000000000000000e+00 6.0000000000000000e+00
ITEM: ATOMS type x y z c_outsp[1] c_outsp[2] c_outsp[3]
1 0 0 0 -0.436209 -0.892099 -0.11782
1 3 0 0 -0.469602 -0.72789 -0.49965
1 0 3 0 -0.329284 -0.00668628 0.944207
1 3 3 0 -0.751583 -0.199615 0.62871
1 0 0 3 -0.252717 -0.554704 -0.79274
1 3 0 3 -0.582546 -0.662891 -0.470336
1 0 3 3 0.664984 0.16029 0.729454
1 3 3 3 -0.836308 0.535286 0.118563
ITEM: TIMESTEP
5200
ITEM: NUMBER OF ATOMS
8
ITEM: BOX BOUNDS ff ff ff
0.0000000000000000e+00 6.0000000000000000e+00
0.0000000000000000e+00 6.0000000000000000e+00
0.0000000000000000e+00 6.0000000000000000e+00
ITEM: ATOMS type x y z c_outsp[1] c_outsp[2] c_outsp[3]
1 0 0 0 -0.200279 -0.976035 -0.085117
1 3 0 0 -0.419638 -0.805589 0.418247
1 0 3 0 -0.625185 0.0378618 0.779558
1 3 3 0 -0.969774 -0.0559021 0.237515
1 0 0 3 0.311274 -0.810427 -0.496303
1 3 0 3 -0.475873 -0.705662 -0.524963
1 0 3 3 0.381771 0.836863 0.392315
1 3 3 3 -0.996317 -0.0138199 -0.0846284
ITEM: TIMESTEP
5300
ITEM: NUMBER OF ATOMS
8
ITEM: BOX BOUNDS ff ff ff
0.0000000000000000e+00 6.0000000000000000e+00
0.0000000000000000e+00 6.0000000000000000e+00
0.0000000000000000e+00 6.0000000000000000e+00
ITEM: ATOMS type x y z c_outsp[1] c_outsp[2] c_outsp[3]
1 0 0 0 0.0361908 -0.780075 0.624639
1 3 0 0 -0.700781 -0.702748 -0.122687
1 0 3 0 -0.799978 0.0814349 0.594477
1 3 3 0 -0.901794 -0.28704 0.323073
1 0 0 3 0.58444 -0.790666 -0.182417
1 3 0 3 -0.272487 -0.962124 0.00828889