LAMMPS (23 Jun 2022)
#LAMMPS in.run

units           metal
atom_style      spin
# atom_style      spin/kk
atom_modify     map array
boundary        f f f

# read_data     singlespin.data

lattice         sc 3.0
Lattice spacing in x,y,z = 3 3 3
region          box block 0.0 2.0 0.0 2.0 0.0 2.0
create_box      1 box
Created orthogonal box = (0 0 0) to (6 6 6)
  1 by 1 by 1 MPI processor grid
create_atoms    1 box
Created 8 atoms
  using lattice units in orthogonal box = (0 0 0) to (6 6 6)
  create_atoms CPU = 0.001 seconds

mass            1 1.0
set             type 1 spin 2.0 1.0 0.0 0.0
Setting atom values ...
  8 settings made for spin

pair_style      spin/exchange 4.0
#pair_coeff      * * exchange 1.0 0.0 0.0 1.0
pair_coeff	* * exchange 3.1 11.254 0.0 1.0

group bead      type 1
8 atoms in group bead
set 		group all spin/random 11 2.50
Setting atom values ...
  8 settings made for spin/random
variable        H equal 10.0
variable        Kan equal 0.0
variable        Temperature equal 10.0
variable        Nsteps equal 500000

fix             1 all nve/spin lattice frozen
# fix             2 all precession/spin zeeman ${H} 0.0 0.0 1.0 anisotropy ${Kan} 0.0 0.0 1.0
fix             2 all precession/spin zeeman ${H} 0.0 0.0 1.0 anisotropy ${Kan} 0.0 0.0 1.0
fix             2 all precession/spin zeeman 10 0.0 0.0 1.0 anisotropy ${Kan} 0.0 0.0 1.0
fix             2 all precession/spin zeeman 10 0.0 0.0 1.0 anisotropy 0 0.0 0.0 1.0
fix_modify      2 energy yes
fix             3 all langevin/spin ${Temperature} 0.01 12345
fix             3 all langevin/spin 10 0.01 12345

compute 	out_mag    all spin
compute 	out_pe     all pe

variable 	magx      equal c_out_mag[1]
variable 	magy      equal c_out_mag[2]
variable 	magz      equal c_out_mag[3]
variable 	magnorm   equal c_out_mag[4]
variable 	emag      equal c_out_mag[5]

thermo_style    custom step time v_magx v_magy v_magz v_emag pe etotal
thermo          100
compute 	outsp all property/atom spx spy spz sp fmx fmy fmz

dump 		1 all custom 100 dump_precession.lammpstrj type x y z c_outsp[1] c_outsp[2] c_outsp[3]
timestep	0.0001

run             ${Nsteps}
run             500000

CITE-CITE-CITE-CITE-CITE-CITE-CITE-CITE-CITE-CITE-CITE-CITE-CITE

Your simulation uses code contributions which should be cited:

- fix nve/spin command:

@article{tranchida2018massively,
title={Massively parallel symplectic algorithm for coupled magnetic spin dynamics and molecular dynamics},
author={Tranchida, J and Plimpton, SJ and Thibaudeau, P and Thompson, AP},
journal={Journal of Computational Physics},
volume={372},
pages={406-425},
year={2018},
publisher={Elsevier}
doi={10.1016/j.jcp.2018.06.042}
}

CITE-CITE-CITE-CITE-CITE-CITE-CITE-CITE-CITE-CITE-CITE-CITE-CITE

Generated 0 of 0 mixed pair_coeff terms from geometric mixing rule
Neighbor list info ...
  update every 1 steps, delay 10 steps, check yes
  max neighbors/atom: 2000, page size: 100000
  master list distance cutoff = 6
  ghost atom cutoff = 6
  binsize = 3, bins = 2 2 2
  1 neighbor lists, perpetual/occasional/extra = 1 0 0
  (1) pair spin/exchange, perpetual
      attributes: full, newton on
      pair build: full/bin/atomonly
      stencil: full/bin/3d
      bin: standard
Per MPI rank memory allocation (min/avg/max) = 6.791 | 6.791 | 6.791 Mbytes
   Step          Time          v_magx         v_magy         v_magz         v_emag         PotEng         TotEng    
         0   0              0.0081148436   0.26418843     0.0036291532   0.040940376    0.040940376    0.040940376  
       100   0.01          -0.0054811538   0.27089118     0.010972404    0.035454639    0.035454639    0.035454639  
       200   0.02          -0.01165393     0.27790388     0.017514711    0.02643876     0.02643876     0.02643876   
       300   0.03          -0.023702951    0.27858565     0.025554288    0.020418793    0.020418793    0.020418793  
       400   0.04          -0.031192244    0.28614715     0.033306525    0.014266923    0.014266923    0.014266923  
       500   0.05          -0.045436763    0.28575322     0.037123122    0.011265888    0.011265888    0.011265888  
       600   0.06          -0.062832589    0.2946657      0.028234102    0.0019571162   0.0019571162   0.0019571162 
       700   0.07          -0.081095737    0.2907258      0.043386432   -0.0058381723  -0.0058381723  -0.0058381723 
       800   0.08          -0.095327278    0.28795408     0.042261601   -0.0079559034  -0.0079559034  -0.0079559034 
       900   0.09          -0.11068206     0.28428421     0.046600933   -0.013372496   -0.013372496   -0.013372496  
      1000   0.1           -0.12047214     0.27829516     0.055241578   -0.014508443   -0.014508443   -0.014508443  
      1100   0.11          -0.14412199     0.27066476     0.053257391   -0.015638171   -0.015638171   -0.015638171  
      1200   0.12          -0.15535152     0.25847572     0.053405087   -0.020661998   -0.020661998   -0.020661998  
      1300   0.13          -0.17192238     0.25920219     0.059316224   -0.030661279   -0.030661279   -0.030661279  
      1400   0.14          -0.17895685     0.25498172     0.06304527    -0.034982276   -0.034982276   -0.034982276  
      1500   0.15          -0.19308788     0.24832447     0.051082072   -0.042928336   -0.042928336   -0.042928336  
      1600   0.16          -0.20380877     0.24408665     0.051180555   -0.052395261   -0.052395261   -0.052395261  
      1700   0.17          -0.21389858     0.23719151     0.057974643   -0.061108437   -0.061108437   -0.061108437  
      1800   0.18          -0.23072197     0.23257432     0.066741525   -0.06674504    -0.06674504    -0.06674504   
      1900   0.19          -0.2432712      0.23221057     0.063131968   -0.069594522   -0.069594522   -0.069594522  
      2000   0.2           -0.25050211     0.22479789     0.063555145   -0.071185853   -0.071185853   -0.071185853  
      2100   0.21          -0.26607522     0.21663384     0.062014164   -0.078296899   -0.078296899   -0.078296899  
      2200   0.22          -0.27801733     0.19769899     0.060231131   -0.082564032   -0.082564032   -0.082564032  
      2300   0.23          -0.28863813     0.17712522     0.065570896   -0.084887714   -0.084887714   -0.084887714  
      2400   0.24          -0.30540369     0.15878306     0.064694532   -0.090002947   -0.090002947   -0.090002947  
      2500   0.25          -0.30861399     0.15114014     0.06597373    -0.089307613   -0.089307613   -0.089307613  
      2600   0.26          -0.31976787     0.14037561     0.061558093   -0.092158827   -0.092158827   -0.092158827  
      2700   0.27          -0.33555712     0.13399294     0.054295612   -0.098760256   -0.098760256   -0.098760256  
      2800   0.28          -0.34382988     0.12192909     0.061707546   -0.10823306    -0.10823306    -0.10823306   
      2900   0.29          -0.34897075     0.1058461      0.059089628   -0.1106992     -0.1106992     -0.1106992    
      3000   0.3           -0.35996428     0.092330468    0.056452351   -0.11497234    -0.11497234    -0.11497234   
      3100   0.31          -0.37817065     0.078190801    0.057227495   -0.12597783    -0.12597783    -0.12597783   
      3200   0.32          -0.39077269     0.06748265     0.050705576   -0.13430535    -0.13430535    -0.13430535   
      3300   0.33          -0.39871774     0.055764911    0.050404924   -0.13842496    -0.13842496    -0.13842496   
      3400   0.34          -0.4040411      0.045130376    0.050205868   -0.14300833    -0.14300833    -0.14300833   
      3500   0.35          -0.41096795     0.029202451    0.052475754   -0.14914485    -0.14914485    -0.14914485   
      3600   0.36          -0.41570697     0.013104673    0.04052615    -0.15498112    -0.15498112    -0.15498112   
      3700   0.37          -0.42192758    -0.0019909579   0.029969387   -0.1612426     -0.1612426     -0.1612426    
      3800   0.38          -0.42231458    -0.020512127    0.02840619    -0.16624172    -0.16624172    -0.16624172   
      3900   0.39          -0.42313709    -0.040437598    0.027127935   -0.17239024    -0.17239024    -0.17239024   
      4000   0.4           -0.42164516    -0.054569789    0.030109335   -0.17306466    -0.17306466    -0.17306466   
      4100   0.41          -0.41632066    -0.067211799    0.038253295   -0.17829502    -0.17829502    -0.17829502   
      4200   0.42          -0.40709989    -0.079718827    0.038433559   -0.17870892    -0.17870892    -0.17870892   
      4300   0.43          -0.40721524    -0.10561728     0.035632066   -0.18468512    -0.18468512    -0.18468512   
      4400   0.44          -0.40461674    -0.13778162     0.039642127   -0.191206      -0.191206      -0.191206     
      4500   0.45          -0.40113305    -0.1683908      0.041943688   -0.19672182    -0.19672182    -0.19672182   
      4600   0.46          -0.39445655    -0.19867        0.04929093    -0.19788251    -0.19788251    -0.19788251   
      4700   0.47          -0.38896709    -0.20980388     0.057490455   -0.20207035    -0.20207035    -0.20207035   
      4800   0.48          -0.37532237    -0.23782727     0.060473594   -0.20548762    -0.20548762    -0.20548762   
      4900   0.49          -0.36749669    -0.25759795     0.058597489   -0.21214552    -0.21214552    -0.21214552   
      5000   0.5           -0.37551144    -0.27658264     0.066522135   -0.21910531    -0.21910531    -0.21910531   
      5100   0.51          -0.37415821    -0.29353855     0.067548467   -0.22544844    -0.22544844    -0.22544844   
      5200   0.52          -0.37425259    -0.31158869     0.079577893   -0.23163156    -0.23163156    -0.23163156   
      5300   0.53          -0.35772676    -0.32786534     0.087853716   -0.23123281    -0.23123281    -0.23123281   
      5400   0.54          -0.33838999    -0.35138352     0.095275525   -0.23368466    -0.23368466    -0.23368466   
      5500   0.55          -0.32636984    -0.37085034     0.093717073   -0.23871929    -0.23871929    -0.23871929   
      5600   0.56          -0.31511709    -0.38811994     0.098954943   -0.2405595     -0.2405595     -0.2405595    
      5700   0.57          -0.30013191    -0.40499823     0.098319191   -0.24376411    -0.24376411    -0.24376411   
      5800   0.58          -0.27934197    -0.4271932      0.095105629   -0.2462954     -0.2462954     -0.2462954    
      5900   0.59          -0.26263663    -0.43150546     0.095095827   -0.24099363    -0.24099363    -0.24099363   
      6000   0.6           -0.24181656    -0.44901117     0.096954261   -0.24554664    -0.24554664    -0.24554664   
      6100   0.61          -0.22256002    -0.46548718     0.099657839   -0.25113815    -0.25113815    -0.25113815   
      6200   0.62          -0.19988358    -0.48044658     0.098063671   -0.25413308    -0.25413308    -0.25413308   
      6300   0.63          -0.1852975     -0.49825207     0.096715539   -0.26099531    -0.26099531    -0.26099531   
      6400   0.64          -0.16948834    -0.5097984      0.0947683     -0.26347681    -0.26347681    -0.26347681   
      6500   0.65          -0.15152652    -0.52520809     0.092458325   -0.27024832    -0.27024832    -0.27024832   
      6600   0.66          -0.12907056    -0.54503614     0.089877015   -0.27547557    -0.27547557    -0.27547557   
      6700   0.67          -0.11481574    -0.56637181     0.089180929   -0.28968816    -0.28968816    -0.28968816   
      6800   0.68          -0.087022113   -0.57909449     0.091190744   -0.29688648    -0.29688648    -0.29688648   
      6900   0.69          -0.062010758   -0.59152592     0.096391173   -0.30353299    -0.30353299    -0.30353299   
      7000   0.7           -0.036084298   -0.60524774     0.090783636   -0.30977487    -0.30977487    -0.30977487   
      7100   0.71          -0.0065111228  -0.60588558     0.091645117   -0.31234889    -0.31234889    -0.31234889   
      7200   0.72           0.025152658   -0.61145222     0.088655514   -0.31499506    -0.31499506    -0.31499506   
      7300   0.73           0.055646399   -0.61662698     0.095569494   -0.32098236    -0.32098236    -0.32098236   
      7400   0.74           0.087592139   -0.62026131     0.097444174   -0.32628348    -0.32628348    -0.32628348   
      7500   0.75           0.12052204    -0.62164323     0.10076068    -0.32807777    -0.32807777    -0.32807777   
      7600   0.76           0.14551139    -0.62284063     0.098628381   -0.33267472    -0.33267472    -0.33267472   
      7700   0.77           0.16997347    -0.62325193     0.09337497    -0.3352998     -0.3352998     -0.3352998    
      7800   0.78           0.19697794    -0.61561857     0.090528346   -0.33530072    -0.33530072    -0.33530072   
      7900   0.79           0.23324242    -0.61063977     0.082538183   -0.34028723    -0.34028723    -0.34028723   
      8000   0.8            0.26352871    -0.60320802     0.082989973   -0.34424211    -0.34424211    -0.34424211   
      8100   0.81           0.28907273    -0.59975844     0.085860048   -0.3480743     -0.3480743     -0.3480743    
      8200   0.82           0.31894574    -0.59090405     0.084362303   -0.35076616    -0.35076616    -0.35076616   
      8300   0.83           0.3487152     -0.58060405     0.084879299   -0.35279512    -0.35279512    -0.35279512   
      8400   0.84           0.3746616     -0.56604211     0.09409485    -0.35607309    -0.35607309    -0.35607309   
      8500   0.85           0.40140371    -0.56076111     0.096576108   -0.36289333    -0.36289333    -0.36289333   
      8600   0.86           0.42122833    -0.54419202     0.099061077   -0.36090546    -0.36090546    -0.36090546   
      8700   0.87           0.4512673     -0.52706883     0.099827172   -0.36511146    -0.36511146    -0.36511146   
      8800   0.88           0.47619614    -0.51784655     0.09751822    -0.37120707    -0.37120707    -0.37120707   
      8900   0.89           0.4997366     -0.5024755      0.094438048   -0.37450151    -0.37450151    -0.37450151   
      9000   0.9            0.52288645    -0.48427804     0.099899764   -0.37578405    -0.37578405    -0.37578405   
      9100   0.91           0.54704656    -0.46247096     0.10447059    -0.38006122    -0.38006122    -0.38006122   
      9200   0.92           0.57403114    -0.44719759     0.11239783    -0.39086702    -0.39086702    -0.39086702   
      9300   0.93           0.59359156    -0.41943029     0.10716779    -0.38923076    -0.38923076    -0.38923076   
      9400   0.94           0.61959721    -0.38859613     0.1073138     -0.39041907    -0.39041907    -0.39041907   
      9500   0.95           0.64298798    -0.36483318     0.10574645    -0.39517295    -0.39517295    -0.39517295   
      9600   0.96           0.6593661     -0.34667541     0.10459174    -0.4011183     -0.4011183     -0.4011183    
      9700   0.97           0.67300829    -0.32679118     0.098930221   -0.40280048    -0.40280048    -0.40280048   
      9800   0.98           0.69654411    -0.30132687     0.099748862   -0.41215034    -0.41215034    -0.41215034   
      9900   0.99           0.7144539     -0.2755919      0.10460278    -0.41934373    -0.41934373    -0.41934373   
     10000   1              0.72633433    -0.2475696      0.10739417    -0.42170803    -0.42170803    -0.42170803   
     10100   1.01           0.74140357    -0.22372331     0.10573069    -0.42791995    -0.42791995    -0.42791995   
     10200   1.02           0.75704308    -0.18464604     0.10670408    -0.43045127    -0.43045127    -0.43045127   
     10300   1.03           0.77178746    -0.15909597     0.10731145    -0.4369055     -0.4369055     -0.4369055    
     10400   1.04           0.78465324    -0.12756836     0.11108065    -0.4429743     -0.4429743     -0.4429743    
     10500   1.05           0.79778716    -0.10485909     0.1129743     -0.45207589    -0.45207589    -0.45207589   
     10600   1.06           0.80155184    -0.068930341    0.11008333    -0.4515685     -0.4515685     -0.4515685    
     10700   1.07           0.81228394    -0.03934872     0.10874948    -0.45634493    -0.45634493    -0.45634493   
     10800   1.08           0.81624434    -0.011031153    0.1062433     -0.45903774    -0.45903774    -0.45903774   
     10900   1.09           0.82471055     0.035239175    0.10794107    -0.46635135    -0.46635135    -0.46635135   
     11000   1.1            0.82285765     0.071791503    0.10307828    -0.46781994    -0.46781994    -0.46781994   
     11100   1.11           0.82875476     0.10497806     0.10102457    -0.47307015    -0.47307015    -0.47307015   
     11200   1.12           0.82415711     0.1517242      0.10478803    -0.47388315    -0.47388315    -0.47388315   
     11300   1.13           0.82544992     0.18671827     0.10178866    -0.48099861    -0.48099861    -0.48099861   
     11400   1.14           0.81835444     0.22054575     0.10141074    -0.48126612    -0.48126612    -0.48126612   
     11500   1.15           0.8105032      0.25818308     0.09963364    -0.48372227    -0.48372227    -0.48372227   
     11600   1.16           0.80145376     0.2979318      0.10303044    -0.48773974    -0.48773974    -0.48773974   
     11700   1.17           0.78651061     0.33864064     0.10740672    -0.49027394    -0.49027394    -0.49027394   
     11800   1.18           0.7671655      0.38145758     0.10469151    -0.49011315    -0.49011315    -0.49011315   
     11900   1.19           0.74936591     0.41409969     0.10770178    -0.49160224    -0.49160224    -0.49160224   
     12000   1.2            0.73530052     0.44290636     0.096768941   -0.49181834    -0.49181834    -0.49181834   
     12100   1.21           0.71903817     0.47847182     0.093370081   -0.49606198    -0.49606198    -0.49606198   
     12200   1.22           0.70655053     0.50689875     0.088889379   -0.50006777    -0.50006777    -0.50006777   
     12300   1.23           0.68680634     0.54514444     0.09086598    -0.5059239     -0.5059239     -0.5059239    
     12400   1.24           0.65890644     0.57261673     0.09481925    -0.50355043    -0.50355043    -0.50355043   
     12500   1.25           0.63424366     0.60022927     0.096220476   -0.50370569    -0.50370569    -0.50370569   
     12600   1.26           0.61239253     0.62769726     0.10441469    -0.50778769    -0.50778769    -0.50778769   
     12700   1.27           0.58519403     0.65375247     0.10644648    -0.50935323    -0.50935323    -0.50935323   
     12800   1.28           0.56032984     0.67997845     0.099508222   -0.5115184     -0.5115184     -0.5115184    
     12900   1.29           0.53630368     0.7085216      0.087431569   -0.51556459    -0.51556459    -0.51556459   
     13000   1.3            0.50081623     0.74041821     0.09290907    -0.51975872    -0.51975872    -0.51975872   
     13100   1.31           0.4754676      0.76146035     0.087623492   -0.52149653    -0.52149653    -0.52149653   
     13200   1.32           0.4480973      0.77854709     0.08486368    -0.52122467    -0.52122467    -0.52122467   
     13300   1.33           0.41042867     0.80134089     0.088145099   -0.52316729    -0.52316729    -0.52316729   
     13400   1.34           0.3713001      0.82352504     0.085266101   -0.52475836    -0.52475836    -0.52475836   
     13500   1.35           0.33251313     0.84375908     0.0797976     -0.52642629    -0.52642629    -0.52642629   
     13600   1.36           0.29767566     0.85872232     0.084721802   -0.52894392    -0.52894392    -0.52894392   
     13700   1.37           0.26027302     0.87502435     0.083223114   -0.53230504    -0.53230504    -0.53230504   
     13800   1.38           0.22004055     0.88816988     0.075823482   -0.533576      -0.533576      -0.533576     
     13900   1.39           0.17726348     0.9023955      0.075218442   -0.53701695    -0.53701695    -0.53701695   
     14000   1.4            0.1423895      0.91375536     0.073045258   -0.54119993    -0.54119993    -0.54119993   
     14100   1.41           0.10487019     0.92027805     0.072022125   -0.54244274    -0.54244274    -0.54244274   
     14200   1.42           0.059383926    0.922296       0.078019585   -0.54126161    -0.54126161    -0.54126161   
     14300   1.43           0.019095195    0.92031279     0.08767113    -0.53943813    -0.53943813    -0.53943813   
     14400   1.44          -0.019578386    0.91793663     0.093594681   -0.53799874    -0.53799874    -0.53799874   
     14500   1.45          -0.058875205    0.91558456     0.090418359   -0.53711949    -0.53711949    -0.53711949   
     14600   1.46          -0.099766806    0.91735885     0.080583893   -0.5401868     -0.5401868     -0.5401868    
     14700   1.47          -0.13654642     0.91909024     0.075564059   -0.54392756    -0.54392756    -0.54392756   
     14800   1.48          -0.17877699     0.91410408     0.073993767   -0.54505622    -0.54505622    -0.54505622   
     14900   1.49          -0.21886614     0.90468023     0.076293962   -0.54427319    -0.54427319    -0.54427319   
     15000   1.5           -0.26146872     0.89347863     0.070593819   -0.54380979    -0.54380979    -0.54380979   
     15100   1.51          -0.31083673     0.87804821     0.075929704   -0.54479779    -0.54479779    -0.54479779   
     15200   1.52          -0.34924923     0.86534595     0.074112915   -0.54674429    -0.54674429    -0.54674429   
     15300   1.53          -0.39520588     0.84722201     0.072397263   -0.54783011    -0.54783011    -0.54783011   
     15400   1.54          -0.43081773     0.82747672     0.075416861   -0.54610795    -0.54610795    -0.54610795   
     15500   1.55          -0.47600435     0.80728941     0.077617936   -0.54997664    -0.54997664    -0.54997664   
     15600   1.56          -0.51455331     0.78482623     0.078078755   -0.55209683    -0.55209683    -0.55209683   
     15700   1.57          -0.54758518     0.76405972     0.069868254   -0.55335908    -0.55335908    -0.55335908   
     15800   1.58          -0.58146708     0.74164885     0.068818826   -0.55463163    -0.55463163    -0.55463163   
     15900   1.59          -0.62202628     0.7072056      0.074768186   -0.55428504    -0.55428504    -0.55428504   
     16000   1.6           -0.65049082     0.68142302     0.075656909   -0.55403692    -0.55403692    -0.55403692   
     16100   1.61          -0.68337763     0.65376455     0.081206413   -0.55788724    -0.55788724    -0.55788724   
     16200   1.62          -0.70786492     0.62935473     0.088017879   -0.55891726    -0.55891726    -0.55891726   
     16300   1.63          -0.73936818     0.59755581     0.08856635    -0.56222613    -0.56222613    -0.56222613   
     16400   1.64          -0.76601765     0.56411078     0.079736173   -0.56143341    -0.56143341    -0.56143341   
     16500   1.65          -0.78648619     0.53635877     0.080655359   -0.56256237    -0.56256237    -0.56256237   
     16600   1.66          -0.80937438     0.50236402     0.080138088   -0.56219367    -0.56219367    -0.56219367   
     16700   1.67          -0.83541013     0.46016524     0.093910267   -0.56471241    -0.56471241    -0.56471241   
     16800   1.68          -0.85730344     0.42369879     0.096255055   -0.56788198    -0.56788198    -0.56788198   
     16900   1.69          -0.87636982     0.37733685     0.1053734     -0.56652307    -0.56652307    -0.56652307   
     17000   1.7           -0.89387855     0.34583117     0.10436748    -0.56991948    -0.56991948    -0.56991948   
     17100   1.71          -0.90782684     0.30379798     0.10452556    -0.5685563     -0.5685563     -0.5685563    
     17200   1.72          -0.92016465     0.26663193     0.1039414     -0.5689056     -0.5689056     -0.5689056    
     17300   1.73          -0.93021266     0.23320003     0.1199266     -0.57163506    -0.57163506    -0.57163506   
     17400   1.74          -0.94196469     0.1893827      0.11226032    -0.57324371    -0.57324371    -0.57324371   
     17500   1.75          -0.94763404     0.15579763     0.11303932    -0.57312018    -0.57312018    -0.57312018   
     17600   1.76          -0.95655467     0.10744842     0.11289326    -0.57516384    -0.57516384    -0.57516384   
     17700   1.77          -0.96101867     0.064597867    0.12023313    -0.57680759    -0.57680759    -0.57680759   
     17800   1.78          -0.96190727     0.023154594    0.13016408    -0.57705583    -0.57705583    -0.57705583   
     17900   1.79          -0.96174365    -0.021047007    0.12783335    -0.57614392    -0.57614392    -0.57614392   
     18000   1.8           -0.95788108    -0.062076046    0.13543023    -0.57504177    -0.57504177    -0.57504177   
     18100   1.81          -0.95189329    -0.10223571     0.12786858    -0.5714515     -0.5714515     -0.5714515    
     18200   1.82          -0.94737335    -0.1473561      0.12634671    -0.57280581    -0.57280581    -0.57280581   
     18300   1.83          -0.94014708    -0.18879242     0.12861547    -0.57298259    -0.57298259    -0.57298259   
     18400   1.84          -0.93260194    -0.2218698      0.12577516    -0.57244818    -0.57244818    -0.57244818   
     18500   1.85          -0.92625071    -0.25253601     0.11483015    -0.57283644    -0.57283644    -0.57283644   
     18600   1.86          -0.91334172    -0.29851749     0.11956214    -0.57397805    -0.57397805    -0.57397805   
     18700   1.87          -0.89882932    -0.32954912     0.13156341    -0.57206793    -0.57206793    -0.57206793   
     18800   1.88          -0.88387402    -0.37343485     0.12911041    -0.57387197    -0.57387197    -0.57387197   
     18900   1.89          -0.86364719    -0.41534415     0.13844773    -0.57406269    -0.57406269    -0.57406269   
     19000   1.9           -0.84057841    -0.45899454     0.14446693    -0.57427467    -0.57427467    -0.57427467   
     19100   1.91          -0.8240174     -0.49113263     0.14391772    -0.57512838    -0.57512838    -0.57512838   
     19200   1.92          -0.80339166    -0.52797655     0.14721153    -0.57747053    -0.57747053    -0.57747053   
     19300   1.93          -0.78748847    -0.55995255     0.13338038    -0.58025303    -0.58025303    -0.58025303   
     19400   1.94          -0.76246457    -0.59391763     0.13294818    -0.58081297    -0.58081297    -0.58081297   
     19500   1.95          -0.73909126    -0.62668322     0.13055953    -0.58289205    -0.58289205    -0.58289205   
     19600   1.96          -0.70670068    -0.66461376     0.13502179    -0.58511871    -0.58511871    -0.58511871   
     19700   1.97          -0.68171458    -0.69286559     0.13133724    -0.58620239    -0.58620239    -0.58620239   
     19800   1.98          -0.65071082    -0.72633684     0.12905156    -0.58832378    -0.58832378    -0.58832378   
     19900   1.99          -0.61951046    -0.75288548     0.13635107    -0.58966558    -0.58966558    -0.58966558   
     20000   2             -0.58726964    -0.77450899     0.14599364    -0.58830846    -0.58830846    -0.58830846   
     20100   2.01          -0.54804395    -0.80432208     0.13627569    -0.58771571    -0.58771571    -0.58771571   
     20200   2.02          -0.51374033    -0.82839578     0.13063007    -0.58841741    -0.58841741    -0.58841741   
     20300   2.03          -0.47713049    -0.8532953      0.12433767    -0.5900451     -0.5900451     -0.5900451    
     20400   2.04          -0.43916794    -0.8749936      0.11892551    -0.59060109    -0.59060109    -0.59060109   
     20500   2.05          -0.40095211    -0.89375675     0.12021521    -0.59105316    -0.59105316    -0.59105316   
     20600   2.06          -0.36076777    -0.91149601     0.11703949    -0.591194      -0.591194      -0.591194     
     20700   2.07          -0.32899987    -0.92446943     0.11352091    -0.59113715    -0.59113715    -0.59113715   
     20800   2.08          -0.27186734    -0.94310825     0.11796835    -0.59161259    -0.59161259    -0.59161259   
     20900   2.09          -0.22142651    -0.95851006     0.1061055     -0.59225039    -0.59225039    -0.59225039   
     21000   2.1           -0.17350439    -0.96942019     0.10329438    -0.59312571    -0.59312571    -0.59312571   
     21100   2.11          -0.13609087    -0.97473225     0.11055791    -0.59335241    -0.59335241    -0.59335241   
     21200   2.12          -0.092214448   -0.97869099     0.12214777    -0.59380084    -0.59380084    -0.59380084   
     21300   2.13          -0.056243614   -0.98077037     0.12139532    -0.59291799    -0.59291799    -0.59291799   
     21400   2.14          -0.019371869   -0.98164881     0.12874336    -0.59397256    -0.59397256    -0.59397256   
     21500   2.15           0.025682357   -0.98248206     0.12894687    -0.59478567    -0.59478567    -0.59478567   
     21600   2.16           0.073865394   -0.97972        0.12743994    -0.5942376     -0.5942376     -0.5942376    
     21700   2.17           0.12361918    -0.97236874     0.13814184    -0.59374801    -0.59374801    -0.59374801   
     21800   2.18           0.1663763     -0.9668423      0.13105484    -0.59344996    -0.59344996    -0.59344996   
     21900   2.19           0.20476644    -0.95909356     0.14421587    -0.59554266    -0.59554266    -0.59554266   
     22000   2.2            0.24023896    -0.95129054     0.13761604    -0.59491541    -0.59491541    -0.59491541   
     22100   2.21           0.2783441     -0.94180808     0.14004095    -0.59624325    -0.59624325    -0.59624325   
     22200   2.22           0.32110073    -0.92756605     0.14137717    -0.59577211    -0.59577211    -0.59577211   
     22300   2.23           0.36346578    -0.9121663      0.14159793    -0.59607081    -0.59607081    -0.59607081   
     22400   2.24           0.40880349    -0.89313617     0.14070221    -0.59609533    -0.59609533    -0.59609533   
     22500   2.25           0.44774089    -0.87445787     0.14392382    -0.59680629    -0.59680629    -0.59680629   
     22600   2.26           0.49299798    -0.84918232     0.1446714     -0.59661392    -0.59661392    -0.59661392   
     22700   2.27           0.53422231    -0.82461758     0.14222607    -0.59683007    -0.59683007    -0.59683007   
     22800   2.28           0.57454274    -0.79870916     0.1384045     -0.59765557    -0.59765557    -0.59765557   
     22900   2.29           0.60433838    -0.77539744     0.13773981    -0.59672874    -0.59672874    -0.59672874   
     23000   2.3            0.6370695     -0.74754152     0.1391168     -0.59613392    -0.59613392    -0.59613392   
     23100   2.31           0.67472299    -0.71272086     0.14571128    -0.59583837    -0.59583837    -0.59583837   
     23200   2.32           0.69867201    -0.68785831     0.14858862    -0.59567693    -0.59567693    -0.59567693   
     23300   2.33           0.72669873    -0.65550949     0.15074791    -0.59414233    -0.59414233    -0.59414233   
     23400   2.34           0.75653199    -0.61902427     0.15180948    -0.59234663    -0.59234663    -0.59234663   
     23500   2.35           0.7855188     -0.58219669     0.15217151    -0.5919805     -0.5919805     -0.5919805    
     23600   2.36           0.81708004    -0.54063213     0.14802173    -0.59272836    -0.59272836    -0.59272836   
     23700   2.37           0.84214794    -0.50333931     0.13680176    -0.59237945    -0.59237945    -0.59237945   
     23800   2.38           0.86118754    -0.46844565     0.14133078    -0.59203714    -0.59203714    -0.59203714   
     23900   2.39           0.87781969    -0.43771871     0.14308126    -0.59251059    -0.59251059    -0.59251059   
     24000   2.4            0.90052208    -0.39408796     0.13405674    -0.59318971    -0.59318971    -0.59318971   
     24100   2.41           0.91929999    -0.35128775     0.12968195    -0.59415744    -0.59415744    -0.59415744   
     24200   2.42           0.93384008    -0.31060728     0.1340284     -0.5956114     -0.5956114     -0.5956114    
     24300   2.43           0.94819992    -0.26490574     0.13180204    -0.59525552    -0.59525552    -0.59525552   
     24400   2.44           0.95960663    -0.22436786     0.12374361    -0.59483219    -0.59483219    -0.59483219   
     24500   2.45           0.96700258    -0.17495071     0.13293208    -0.59286048    -0.59286048    -0.59286048   
     24600   2.46           0.97616176    -0.12309739     0.13569222    -0.59492648    -0.59492648    -0.59492648   
     24700   2.47           0.98041071    -0.071005729    0.13043975    -0.59318222    -0.59318222    -0.59318222   
     24800   2.48           0.98364163    -0.026268847    0.12466718    -0.59370864    -0.59370864    -0.59370864   
     24900   2.49           0.984818       0.021215572    0.1215103     -0.59471127    -0.59471127    -0.59471127   
     25000   2.5            0.98384163     0.061316176    0.11344708    -0.59412201    -0.59412201    -0.59412201   
     25100   2.51           0.97932078     0.10624818     0.11412911    -0.59325712    -0.59325712    -0.59325712   
     25200   2.52           0.97322478     0.1518229      0.11498056    -0.59330487    -0.59330487    -0.59330487   
     25300   2.53           0.96563842     0.19324186     0.11064107    -0.59195608    -0.59195608    -0.59195608   
     25400   2.54           0.9550461      0.23707027     0.11009947    -0.59136229    -0.59136229    -0.59136229   
     25500   2.55           0.944696       0.27965066     0.10165078    -0.59152307    -0.59152307    -0.59152307   
     25600   2.56           0.93023295     0.32512312     0.099092153   -0.59113293    -0.59113293    -0.59113293   
     25700   2.57           0.9134915      0.36426773     0.10693997    -0.59036683    -0.59036683    -0.59036683   
     25800   2.58           0.89594206     0.40409356     0.11193081    -0.590075      -0.590075      -0.590075     
     25900   2.59           0.87605838     0.44656287     0.098996344   -0.58824329    -0.58824329    -0.58824329   
     26000   2.6            0.85913555     0.48171522     0.087718855   -0.58892464    -0.58892464    -0.58892464   
     26100   2.61           0.84112835     0.51522967     0.078330919   -0.58942087    -0.58942087    -0.58942087   
     26200   2.62           0.82265833     0.54423236     0.085567848   -0.59040225    -0.59040225    -0.59040225   
     26300   2.63           0.79677368     0.58232487     0.079562325   -0.59062092    -0.59062092    -0.59062092   
     26400   2.64           0.76611512     0.62135363     0.087212493   -0.59121711    -0.59121711    -0.59121711   
     26500   2.65           0.74033276     0.65152696     0.084795253   -0.59060182    -0.59060182    -0.59060182   
     26600   2.66           0.71203342     0.68178314     0.085877793   -0.5897949     -0.5897949     -0.5897949    
     26700   2.67           0.68146713     0.71172055     0.087692338   -0.58973577    -0.58973577    -0.58973577   
     26800   2.68           0.64665199     0.74431144     0.078868489   -0.58934987    -0.58934987    -0.58934987   
     26900   2.69           0.61432112     0.76869802     0.088197174   -0.58913575    -0.58913575    -0.58913575   
     27000   2.7            0.58528573     0.79100933     0.08202783    -0.58801527    -0.58801527    -0.58801527   
     27100   2.71           0.55001312     0.81530318     0.080776839   -0.58781056    -0.58781056    -0.58781056   
     27200   2.72           0.51360674     0.84016667     0.079269814   -0.58892848    -0.58892848    -0.58892848   
     27300   2.73           0.47587979     0.86278637     0.074858065   -0.58877912    -0.58877912    -0.58877912   
     27400   2.74           0.43998752     0.88213598     0.07037045    -0.58869416    -0.58869416    -0.58869416   
     27500   2.75           0.40152518     0.90078998     0.069262369   -0.58946259    -0.58946259    -0.58946259   
     27600   2.76           0.36875046     0.91390907     0.06553841    -0.58829394    -0.58829394    -0.58829394   
     27700   2.77           0.33303897     0.92970631     0.052384814   -0.58947978    -0.58947978    -0.58947978   
     27800   2.78           0.29897244     0.94324554     0.057327035   -0.59251834    -0.59251834    -0.59251834   
     27900   2.79           0.26328398     0.9534476      0.05859478    -0.59245076    -0.59245076    -0.59245076   
     28000   2.8            0.22144917     0.96406852     0.045556621   -0.59117661    -0.59117661    -0.59117661   
     28100   2.81           0.17208439     0.9733932      0.047214027   -0.5911422     -0.5911422     -0.5911422    
     28200   2.82           0.12741944     0.98051334     0.045024852   -0.59091601    -0.59091601    -0.59091601   
     28300   2.83           0.075849252    0.98557911     0.040787134   -0.59036283    -0.59036283    -0.59036283   
     28400   2.84           0.032449099    0.98911238     0.040125865   -0.59141989    -0.59141989    -0.59141989   
     28500   2.85          -0.0099205313   0.98877092     0.039628727   -0.59092511    -0.59092511    -0.59092511   
     28600   2.86          -0.061678718    0.98692668     0.046195646   -0.59167581    -0.59167581    -0.59167581   
     28700   2.87          -0.10452717     0.98440434     0.036720552   -0.59240235    -0.59240235    -0.59240235   
     28800   2.88          -0.15226947     0.977533       0.031476568   -0.59103609    -0.59103609    -0.59103609   
     28900   2.89          -0.20246946     0.9686846      0.033264237   -0.59147068    -0.59147068    -0.59147068   
     29000   2.9           -0.24014416     0.95984554     0.036311624   -0.59127339    -0.59127339    -0.59127339   
     29100   2.91          -0.28169221     0.94744615     0.047819745   -0.59055971    -0.59055971    -0.59055971   
     29200   2.92          -0.32628178     0.93318677     0.057176451   -0.59090426    -0.59090426    -0.59090426   
     29300   2.93          -0.36149362     0.92014408     0.061585409   -0.5918281     -0.5918281     -0.5918281    
     29400   2.94          -0.39552074     0.90552199     0.06415444    -0.59150879    -0.59150879    -0.59150879   
     29500   2.95          -0.42743403     0.89035092     0.063437605   -0.59081072    -0.59081072    -0.59081072   
     29600   2.96          -0.45488312     0.87698216     0.060961066   -0.59058848    -0.59058848    -0.59058848   
     29700   2.97          -0.49329981     0.85634868     0.061117434   -0.59065351    -0.59065351    -0.59065351   
     29800   2.98          -0.52572567     0.83528411     0.064929085   -0.58963394    -0.58963394    -0.58963394   
     29900   2.99          -0.56026725     0.81136715     0.061748698   -0.58827566    -0.58827566    -0.58827566   
     30000   3             -0.5923725      0.7877939      0.067551729   -0.58786483    -0.58786483    -0.58786483   
     30100   3.01          -0.61599223     0.76795678     0.069404209   -0.58631939    -0.58631939    -0.58631939   
     30200   3.02          -0.65461247     0.73494617     0.06877184    -0.58572727    -0.58572727    -0.58572727   
     30300   3.03          -0.68343517     0.70898282     0.076016663   -0.5876047     -0.5876047     -0.5876047    
     30400   3.04          -0.71690831     0.67518891     0.079742517   -0.58766323    -0.58766323    -0.58766323   
     30500   3.05          -0.7470601      0.64121548     0.08039695    -0.58817002    -0.58817002    -0.58817002   
     30600   3.06          -0.77059552     0.60927058     0.087275725   -0.58723473    -0.58723473    -0.58723473   
     30700   3.07          -0.79459886     0.5784587      0.08806809    -0.58788638    -0.58788638    -0.58788638   
     30800   3.08          -0.8193717      0.54319317     0.088031214   -0.5881366     -0.5881366     -0.5881366    
     30900   3.09          -0.8451105      0.504601       0.088149239   -0.58908637    -0.58908637    -0.58908637   
     31000   3.1           -0.86887265     0.46079899     0.088240208   -0.58790176    -0.58790176    -0.58790176   
     31100   3.11          -0.88973264     0.42148162     0.083232961   -0.58872964    -0.58872964    -0.58872964   
     31200   3.12          -0.90985939     0.38167799     0.082041644   -0.59071861    -0.59071861    -0.59071861   
     31300   3.13          -0.92831276     0.33306248     0.078844252   -0.58961053    -0.58961053    -0.58961053   
     31400   3.14          -0.94198875     0.29593885     0.076192015   -0.59024841    -0.59024841    -0.59024841   
     31500   3.15          -0.95619215     0.25000384     0.077475933   -0.59142126    -0.59142126    -0.59142126   
     31600   3.16          -0.96672397     0.20850759     0.078340607   -0.59223054    -0.59223054    -0.59223054   
     31700   3.17          -0.97313422     0.17125028     0.083105364   -0.5918309     -0.5918309     -0.5918309    
     31800   3.18          -0.97791424     0.13439834     0.089283064   -0.59202625    -0.59202625    -0.59202625   
     31900   3.19          -0.98255719     0.088808007    0.096355711   -0.59245087    -0.59245087    -0.59245087   
     32000   3.2           -0.98645582     0.047765238    0.080795152   -0.59177305    -0.59177305    -0.59177305   
     32100   3.21          -0.98840684     0.0013683374   0.07275284    -0.59207323    -0.59207323    -0.59207323   
     32200   3.22          -0.98816672    -0.046823979    0.064213439   -0.59201249    -0.59201249    -0.59201249   
     32300   3.23          -0.98572232    -0.087585628    0.052359933   -0.59100073    -0.59100073    -0.59100073   
     32400   3.24          -0.98011624    -0.12777897     0.058184488   -0.5897904     -0.5897904     -0.5897904    
     32500   3.25          -0.97158818    -0.16906554     0.078379049   -0.58904261    -0.58904261    -0.58904261   
     32600   3.26          -0.96299387    -0.2128528      0.087792309   -0.59112253    -0.59112253    -0.59112253   
     32700   3.27          -0.9552496     -0.24868148     0.086757809   -0.59170234    -0.59170234    -0.59170234   
     32800   3.28          -0.94454548    -0.29305297     0.071282641   -0.59127626    -0.59127626    -0.59127626   
     32900   3.29          -0.92999425    -0.34310571     0.063064687   -0.59382581    -0.59382581    -0.59382581   
     33000   3.3           -0.91212734    -0.3905385      0.057353105   -0.5938737     -0.5938737     -0.5938737    
     33100   3.31          -0.89433585    -0.43087467     0.06382831    -0.59527392    -0.59527392    -0.59527392   
     33200   3.32          -0.87069906    -0.47632986     0.066800717   -0.59539893    -0.59539893    -0.59539893   
     33300   3.33          -0.85277785    -0.50953187     0.056864006   -0.59537667    -0.59537667    -0.59537667   
     33400   3.34          -0.8322081     -0.54251655     0.059951469   -0.59576936    -0.59576936    -0.59576936   
     33500   3.35          -0.80566656    -0.58171557     0.068142101   -0.59715647    -0.59715647    -0.59715647   
     33600   3.36          -0.77699666    -0.61907351     0.066824174   -0.596484      -0.596484      -0.596484     
     33700   3.37          -0.75086687    -0.65150336     0.06813898    -0.59713791    -0.59713791    -0.59713791   
     33800   3.38          -0.72292525    -0.68082069     0.071452764   -0.59649695    -0.59649695    -0.59649695   
     33900   3.39          -0.68992287    -0.71356951     0.078322576   -0.59680295    -0.59680295    -0.59680295   
     34000   3.4           -0.66103127    -0.74004897     0.078449766   -0.59644318    -0.59644318    -0.59644318   
     34100   3.41          -0.63159625    -0.7642357      0.078438479   -0.59549561    -0.59549561    -0.59549561   
     34200   3.42          -0.60066597    -0.78811882     0.077609216   -0.59469305    -0.59469305    -0.59469305   
     34300   3.43          -0.56266045    -0.81389467     0.085249522   -0.59336502    -0.59336502    -0.59336502   
     34400   3.44          -0.53344306    -0.8341727      0.085982719   -0.59463962    -0.59463962    -0.59463962   
     34500   3.45          -0.50764201    -0.85123708     0.084460192   -0.59598171    -0.59598171    -0.59598171   
     34600   3.46          -0.46127363    -0.87798413     0.082939601   -0.59632068    -0.59632068    -0.59632068   
     34700   3.47          -0.41137416    -0.90251084     0.079690999   -0.59649973    -0.59649973    -0.59649973   
     34800   3.48          -0.3726749     -0.9183592      0.082173416   -0.59600892    -0.59600892    -0.59600892   
     34900   3.49          -0.32605743    -0.93657415     0.079359624   -0.59600969    -0.59600969    -0.59600969   
     35000   3.5           -0.28653976    -0.94881839     0.082674096   -0.59570559    -0.59570559    -0.59570559   
     35100   3.51          -0.2461401     -0.95950719     0.085410361   -0.59536993    -0.59536993    -0.59536993   
     35200   3.52          -0.20566653    -0.96937715     0.082957046   -0.59566222    -0.59566222    -0.59566222   
     35300   3.53          -0.15586338    -0.97773931     0.086837554   -0.59526911    -0.59526911    -0.59526911   
     35400   3.54          -0.1154086     -0.98431492     0.085169745   -0.59584258    -0.59584258    -0.59584258   
     35500   3.55          -0.068241089   -0.98845582     0.079350231   -0.59559754    -0.59559754    -0.59559754   
     35600   3.56          -0.025086651   -0.99014956     0.083608502   -0.59572076    -0.59572076    -0.59572076   
     35700   3.57           0.021765243   -0.99000402     0.092792507   -0.59615922    -0.59615922    -0.59615922   
     35800   3.58           0.061365581   -0.98985304     0.084504256   -0.59637132    -0.59637132    -0.59637132   
     35900   3.59           0.10642353    -0.98581169     0.083295899   -0.59578363    -0.59578363    -0.59578363   
     36000   3.6            0.15007376    -0.97986388     0.087344057   -0.59626517    -0.59626517    -0.59626517   
     36100   3.61           0.19641018    -0.97236073     0.083358288   -0.59670801    -0.59670801    -0.59670801   
     36200   3.62           0.23406024    -0.96374947     0.082791847   -0.59568258    -0.59568258    -0.59568258   
     36300   3.63           0.28401579    -0.95114851     0.069900868   -0.59480383    -0.59480383    -0.59480383   
     36400   3.64           0.33346078    -0.93480205     0.068469259   -0.59431378    -0.59431378    -0.59431378   
     36500   3.65           0.36540881    -0.92319855     0.067182465   -0.59459957    -0.59459957    -0.59459957   
     36600   3.66           0.4029425     -0.90694427     0.065504486   -0.59419498    -0.59419498    -0.59419498   
     36700   3.67           0.44996422    -0.88304426     0.073921902   -0.59344193    -0.59344193    -0.59344193   
     36800   3.68           0.49417502    -0.85772588     0.084933102   -0.5933415     -0.5933415     -0.5933415    
     36900   3.69           0.53644201    -0.83195594     0.079052852   -0.59295383    -0.59295383    -0.59295383   
     37000   3.7            0.5671466     -0.81248015     0.076311663   -0.59392425    -0.59392425    -0.59392425   
     37100   3.71           0.60797499    -0.78310312     0.068004973   -0.59370416    -0.59370416    -0.59370416   
     37200   3.72           0.64106871    -0.75780891     0.058855501   -0.59413549    -0.59413549    -0.59413549   
     37300   3.73           0.67731378    -0.72616683     0.059864805   -0.59505925    -0.59505925    -0.59505925   
     37400   3.74           0.7145252     -0.68971446     0.044636306   -0.5938963     -0.5938963     -0.5938963    
     37500   3.75           0.74230522    -0.65936503     0.041605805   -0.59302534    -0.59302534    -0.59302534   
     37600   3.76           0.77723168    -0.61910883     0.034406042   -0.5936872     -0.5936872     -0.5936872    
     37700   3.77           0.79727196    -0.59122143     0.042939393   -0.59262168    -0.59262168    -0.59262168   
     37800   3.78           0.82149039    -0.55594488     0.039747399   -0.59185377    -0.59185377    -0.59185377   
     37900   3.79           0.84391354    -0.52054727     0.041674355   -0.59157035    -0.59157035    -0.59157035   
     38000   3.8            0.86903791    -0.4766513      0.036971634   -0.59112237    -0.59112237    -0.59112237   
     38100   3.81           0.88444538    -0.44428727     0.036821446   -0.58953105    -0.58953105    -0.58953105   
     38200   3.82           0.9034956     -0.40430682     0.043265567   -0.59054616    -0.59054616    -0.59054616   
     38300   3.83           0.92069929    -0.36492087     0.047289685   -0.59144909    -0.59144909    -0.59144909   
     38400   3.84           0.93739536    -0.32115677     0.043778036   -0.59211255    -0.59211255    -0.59211255   
     38500   3.85           0.9481883     -0.28716608     0.05261163    -0.5931333     -0.5931333     -0.5931333    
     38600   3.86           0.95550733    -0.2607326      0.06129795    -0.59359621    -0.59359621    -0.59359621   
     38700   3.87           0.96742518    -0.21185899     0.057582753   -0.59296433    -0.59296433    -0.59296433   
     38800   3.88           0.9742047     -0.1778948      0.063403899   -0.59360394    -0.59360394    -0.59360394   
     38900   3.89           0.98075844    -0.13572214     0.055773075   -0.59291858    -0.59291858    -0.59291858   
     39000   3.9            0.98730887    -0.090458543    0.053305704   -0.59441734    -0.59441734    -0.59441734   
     39100   3.91           0.99009938    -0.053778515    0.055721681   -0.59436768    -0.59436768    -0.59436768   
     39200   3.92           0.99150442    -0.0011114092   0.05095518    -0.59418458    -0.59418458    -0.59418458   
     39300   3.93           0.98972249     0.056920033    0.060840097   -0.5950818     -0.5950818     -0.5950818    
     39400   3.94           0.98531169     0.097440199    0.061973964   -0.59372536    -0.59372536    -0.59372536   
     39500   3.95           0.98100297     0.14420253     0.063048648   -0.5953369     -0.5953369     -0.5953369    
     39600   3.96           0.97319021     0.18925434     0.065227051   -0.59563441    -0.59563441    -0.59563441   
     39700   3.97           0.96389113     0.23329228     0.066755059   -0.59586089    -0.59586089    -0.59586089   
     39800   3.98           0.9533607      0.2749607      0.066470264   -0.59619112    -0.59619112    -0.59619112   
     39900   3.99           0.93874937     0.323117       0.062332014   -0.59641524    -0.59641524    -0.59641524   
     40000   4              0.92514241     0.36079528     0.050872812   -0.59593484    -0.59593484    -0.59593484   
     40100   4.01           0.90873057     0.40071944     0.048861339   -0.59575306    -0.59575306    -0.59575306   
     40200   4.02           0.88741914     0.44677914     0.046850046   -0.59572585    -0.59572585    -0.59572585   
     40300   4.03           0.86440065     0.48992889     0.052001245   -0.59599408    -0.59599408    -0.59599408   
     40400   4.04           0.84191251     0.52985167     0.054754085   -0.59730543    -0.59730543    -0.59730543   
     40500   4.05           0.8183944      0.56564597     0.053158539   -0.59752035    -0.59752035    -0.59752035   
     40600   4.06           0.79017557     0.60577157     0.04875567    -0.59774712    -0.59774712    -0.59774712   
     40700   4.07           0.76257564     0.63884253     0.053482894   -0.59719983    -0.59719983    -0.59719983   
     40800   4.08           0.736506       0.66742386     0.057994782   -0.59639779    -0.59639779    -0.59639779   
     40900   4.09           0.69775965     0.70830159     0.053591672   -0.59612407    -0.59612407    -0.59612407   
     41000   4.1            0.66375052     0.7413241      0.05331952    -0.59690364    -0.59690364    -0.59690364   
     41100   4.11           0.63528339     0.76640992     0.057548394   -0.5980323     -0.5980323     -0.5980323    
     41200   4.12           0.61064492     0.78636684     0.051946798   -0.59739222    -0.59739222    -0.59739222   
     41300   4.13           0.57865569     0.81079073     0.049846868   -0.59801611    -0.59801611    -0.59801611   
     41400   4.14           0.54597056     0.83369518     0.039951739   -0.5979134     -0.5979134     -0.5979134    
     41500   4.15           0.5127422      0.85496586     0.023435367   -0.597339      -0.597339      -0.597339     
     41600   4.16           0.48221271     0.87232621     0.027134338   -0.59762506    -0.59762506    -0.59762506   
     41700   4.17           0.45742779     0.88576201     0.020580941   -0.59751763    -0.59751763    -0.59751763   
     41800   4.18           0.41689041     0.90601997     0.013267797   -0.59772973    -0.59772973    -0.59772973   
     41900   4.19           0.38369536     0.92126193     0.015233791   -0.59835612    -0.59835612    -0.59835612   
     42000   4.2            0.34030921     0.93818792     0.017022235   -0.59824754    -0.59824754    -0.59824754   
     42100   4.21           0.30957233     0.94915278     0.020205368   -0.59883539    -0.59883539    -0.59883539   
     42200   4.22           0.26865027     0.96180671     0.024046921   -0.59940205    -0.59940205    -0.59940205   
     42300   4.23           0.23218227     0.97132564     0.021659516   -0.59926701    -0.59926701    -0.59926701   
     42400   4.24           0.19668345     0.97897429     0.02557955    -0.59935552    -0.59935552    -0.59935552   
     42500   4.25           0.1531918      0.98669963     0.029446917   -0.59948687    -0.59948687    -0.59948687   
     42600   4.26           0.10982426     0.99235024     0.026974476   -0.59919665    -0.59919665    -0.59919665   
     42700   4.27           0.068598129    0.99604309     0.02137342    -0.59881129    -0.59881129    -0.59881129   
     42800   4.28           0.032164521    0.99803061     0.025100855   -0.59931015    -0.59931015    -0.59931015   
     42900   4.29          -0.0093581229   0.99815675     0.028276312   -0.59888647    -0.59888647    -0.59888647   
     43000   4.3           -0.05025752     0.99643537     0.032350467   -0.59844554    -0.59844554    -0.59844554   
     43100   4.31          -0.089667635    0.99374906     0.020674702   -0.59794757    -0.59794757    -0.59794757   
     43200   4.32          -0.13313782     0.9894753      0.019550932   -0.59882327    -0.59882327    -0.59882327   
     43300   4.33          -0.17457807     0.98317687     0.017662328   -0.59904222    -0.59904222    -0.59904222   
     43400   4.34          -0.22374669     0.97327814     0.01843863    -0.59907657    -0.59907657    -0.59907657   
     43500   4.35          -0.27466296     0.95991745     0.019611337   -0.59861338    -0.59861338    -0.59861338   
     43600   4.36          -0.31249214     0.9479888      0.01960704    -0.59809041    -0.59809041    -0.59809041   
     43700   4.37          -0.35630601     0.93278084     0.021096883   -0.59847701    -0.59847701    -0.59847701   
     43800   4.38          -0.39044453     0.91879117     0.027506708   -0.59890579    -0.59890579    -0.59890579   
     43900   4.39          -0.42758893     0.90119252     0.02514463    -0.59797125    -0.59797125    -0.59797125   
     44000   4.4           -0.46697691     0.88087857     0.022702012   -0.5973903     -0.5973903     -0.5973903    
     44100   4.41          -0.50485703     0.85984245     0.029503153   -0.59761372    -0.59761372    -0.59761372   
     44200   4.42          -0.53927246     0.83807344     0.033944662   -0.59724352    -0.59724352    -0.59724352   
     44300   4.43          -0.58234345     0.80849449     0.031277257   -0.59699395    -0.59699395    -0.59699395   
     44400   4.44          -0.61415045     0.78478642     0.032406843   -0.59720796    -0.59720796    -0.59720796   
     44500   4.45          -0.64898073     0.75542982     0.033497507   -0.59663831    -0.59663831    -0.59663831   
     44600   4.46          -0.69171144     0.71684306     0.040328608   -0.59725607    -0.59725607    -0.59725607   
     44700   4.47          -0.72079367     0.68843369     0.04550084    -0.59840729    -0.59840729    -0.59840729   
     44800   4.48          -0.75345263     0.65210709     0.048874661   -0.59826949    -0.59826949    -0.59826949   
     44900   4.49          -0.78623849     0.61256596     0.052553838   -0.59902585    -0.59902585    -0.59902585   
     45000   4.5           -0.8113293      0.5797959      0.047699762   -0.59932715    -0.59932715    -0.59932715   
     45100   4.51          -0.83991472     0.53697215     0.050252319   -0.59906506    -0.59906506    -0.59906506   
     45200   4.52          -0.85847367     0.50748256     0.044635472   -0.59869633    -0.59869633    -0.59869633   
     45300   4.53          -0.8766137      0.47376731     0.054558017   -0.59824735    -0.59824735    -0.59824735   
     45400   4.54          -0.89602877     0.43699064     0.038444125   -0.59757385    -0.59757385    -0.59757385   
     45500   4.55          -0.91337717     0.40052032     0.030499209   -0.59754388    -0.59754388    -0.59754388   
     45600   4.56          -0.93222043     0.35169909     0.032314158   -0.59593107    -0.59593107    -0.59593107   
     45700   4.57          -0.94664811     0.31014959     0.025129653   -0.59510529    -0.59510529    -0.59510529   
     45800   4.58          -0.95938854     0.26460109     0.026025969   -0.59374511    -0.59374511    -0.59374511   
     45900   4.59          -0.97069871     0.21957106     0.031079962   -0.59450785    -0.59450785    -0.59450785   
     46000   4.6           -0.97954755     0.17946169     0.026526086   -0.59495851    -0.59495851    -0.59495851   
     46100   4.61          -0.98671221     0.13379164     0.020382717   -0.59466001    -0.59466001    -0.59466001   
     46200   4.62          -0.99103124     0.09623653     0.025471202   -0.59477937    -0.59477937    -0.59477937   
     46300   4.63          -0.99509571     0.048030213    0.02770491    -0.59573283    -0.59573283    -0.59573283   
     46400   4.64          -0.99577891    -0.0076400702   0.031186069   -0.59574191    -0.59574191    -0.59574191   
     46500   4.65          -0.99507092    -0.049016623    0.02676301    -0.59591914    -0.59591914    -0.59591914   
     46600   4.66          -0.99224616    -0.092770512    0.030724697   -0.59654947    -0.59654947    -0.59654947   
     46700   4.67          -0.98638601    -0.14289354     0.016471952   -0.59589693    -0.59589693    -0.59589693   
     46800   4.68          -0.97903312    -0.18527901     0.012309495   -0.59550381    -0.59550381    -0.59550381   
     46900   4.69          -0.97116593    -0.22141472     0.016113993   -0.59523427    -0.59523427    -0.59523427   
     47000   4.7           -0.96153431    -0.2590251      0.018596964   -0.59525016    -0.59525016    -0.59525016   
     47100   4.71          -0.94846411    -0.30276467     0.019250806   -0.595205      -0.595205      -0.595205     
     47200   4.72          -0.93200957    -0.34935877     0.020125755   -0.59451197    -0.59451197    -0.59451197   
     47300   4.73          -0.91159784    -0.39540588     0.010586837   -0.59217788    -0.59217788    -0.59217788   
     47400   4.74          -0.89343129    -0.43599975     0.01449914    -0.59311925    -0.59311925    -0.59311925   
     47500   4.75          -0.87708926    -0.46940403     0.016621019   -0.59436381    -0.59436381    -0.59436381   
     47600   4.76          -0.85683453    -0.50362236     0.013698688   -0.59326437    -0.59326437    -0.59326437   
     47700   4.77          -0.83451427    -0.53936882     0.012169333   -0.59265783    -0.59265783    -0.59265783   
     47800   4.78          -0.81235655    -0.57483086     0.0068538564  -0.59452396    -0.59452396    -0.59452396   
     47900   4.79          -0.7834488     -0.61297082     0.014023623   -0.59401159    -0.59401159    -0.59401159   
     48000   4.8           -0.75873847    -0.64411225     0.014719727   -0.59464521    -0.59464521    -0.59464521   
     48100   4.81          -0.72450107    -0.68223124     0.017917592   -0.59461793    -0.59461793    -0.59461793   
     48200   4.82          -0.70434495    -0.7045538      0.015745762   -0.59603149    -0.59603149    -0.59603149   
     48300   4.83          -0.65758283    -0.74767698     0.01635101    -0.59547495    -0.59547495    -0.59547495   
     48400   4.84          -0.62554345    -0.7756276      0.011985045   -0.59614238    -0.59614238    -0.59614238   
     48500   4.85          -0.5890988     -0.80368435     0.011593839   -0.5960493     -0.5960493     -0.5960493    
     48600   4.86          -0.55178991    -0.82876088     0.013360654   -0.59484741    -0.59484741    -0.59484741   
     48700   4.87          -0.51149213    -0.85422273     0.014070719   -0.59484997    -0.59484997    -0.59484997   
     48800   4.88          -0.47921221    -0.87275134     0.018935785   -0.59495467    -0.59495467    -0.59495467   
     48900   4.89          -0.43877345    -0.89392284     0.016176961   -0.59482708    -0.59482708    -0.59482708   
     49000   4.9           -0.39625458    -0.91405285     0.0043214358  -0.59490904    -0.59490904    -0.59490904   
     49100   4.91          -0.35629319    -0.9302662     -0.0011838836  -0.59477819    -0.59477819    -0.59477819   
     49200   4.92          -0.32096106    -0.94262157    -0.0030801306  -0.59429596    -0.59429596    -0.59429596   
     49300   4.93          -0.28893421    -0.95275743    -0.012984585   -0.59427913    -0.59427913    -0.59427913   
     49400   4.94          -0.24420081    -0.96481195    -0.012494267   -0.59394899    -0.59394899    -0.59394899   
     49500   4.95          -0.20847237    -0.97260533    -0.015137418   -0.59323413    -0.59323413    -0.59323413   
     49600   4.96          -0.16124774    -0.98236369    -0.011139035   -0.59408343    -0.59408343    -0.59408343   
     49700   4.97          -0.11223933    -0.98962098    -0.0074077428  -0.59463482    -0.59463482    -0.59463482   
     49800   4.98          -0.072546338   -0.99298151    -0.0030592157  -0.5943297     -0.5943297     -0.5943297    
     49900   4.99          -0.022172056   -0.99508568    -0.0033580216  -0.5938001     -0.5938001     -0.5938001    
     50000   5              0.02105269    -0.99510423    -0.01005098    -0.59363682    -0.59363682    -0.59363682   
     50100   5.01           0.065653416   -0.99353269    -0.012497247   -0.59397134    -0.59397134    -0.59397134   
     50200   5.02           0.10878071    -0.99000228    -0.012216541   -0.59430516    -0.59430516    -0.59430516   
     50300   5.03           0.15529423    -0.98379216    -0.006144804   -0.59433862    -0.59433862    -0.59433862   
     50400   5.04           0.1963005     -0.97762913     0.001240385   -0.59582077    -0.59582077    -0.59582077   
     50500   5.05           0.24243154    -0.96720859     0.0014510739  -0.59600013    -0.59600013    -0.59600013   
     50600   5.06           0.28292152    -0.95646854    -0.0018169487  -0.59625919    -0.59625919    -0.59625919   
     50700   5.07           0.33087573    -0.94050147     0.0031087522  -0.59574143    -0.59574143    -0.59574143   
     50800   5.08           0.36908398    -0.92528168     0.0013759323  -0.59452639    -0.59452639    -0.59452639   
     50900   5.09           0.40978552    -0.90810712    -0.0013576718  -0.59448406    -0.59448406    -0.59448406   
     51000   5.1            0.44270392    -0.89201131     0.010064856   -0.59380474    -0.59380474    -0.59380474   
     51100   5.11           0.48828693    -0.86637491     0.013483256   -0.59141812    -0.59141812    -0.59141812   
     51200   5.12           0.52492815    -0.8441212      0.013749958   -0.59065617    -0.59065617    -0.59065617   
     51300   5.13           0.5583768     -0.82178801     0.024468391   -0.59006144    -0.59006144    -0.59006144   
     51400   5.14           0.59443298    -0.79586858     0.019977602   -0.5889946     -0.5889946     -0.5889946    
     51500   5.15           0.6263768     -0.77227229     0.019061426   -0.59051745    -0.59051745    -0.59051745   
     51600   5.16           0.66007677    -0.74453825     0.013108596   -0.59151827    -0.59151827    -0.59151827   
     51700   5.17           0.69350376    -0.71365219     0.0052413123  -0.59148188    -0.59148188    -0.59148188   
     51800   5.18           0.72412192    -0.68298273    -0.0043277524  -0.59205808    -0.59205808    -0.59205808   
     51900   5.19           0.75050781    -0.65393628    -0.0060529186  -0.59223271    -0.59223271    -0.59223271   
     52000   5.2            0.78156994    -0.61660614    -0.014318182   -0.59243319    -0.59243319    -0.59243319   
     52100   5.21           0.80613508    -0.58374896    -0.01754959    -0.59200577    -0.59200577    -0.59200577   
     52200   5.22           0.8281921     -0.55117339    -0.013192204   -0.59165975    -0.59165975    -0.59165975   
     52300   5.23           0.84708573    -0.52078723    -0.012650983   -0.59090566    -0.59090566    -0.59090566   
     52400   5.24           0.86918732    -0.48306466    -0.015822103   -0.59117542    -0.59117542    -0.59117542   
     52500   5.25           0.88778324    -0.44827469    -0.012098822   -0.59190738    -0.59190738    -0.59190738   
     52600   5.26           0.90306418    -0.41773413    -0.0092441137  -0.59281253    -0.59281253    -0.59281253   
     52700   5.27           0.92115288    -0.37463356    -0.010046998   -0.59274737    -0.59274737    -0.59274737   
     52800   5.28           0.93598395    -0.33381277     0.001391314   -0.5922403     -0.5922403     -0.5922403    
     52900   5.29           0.9519449     -0.28667113     0.0019625045  -0.59289275    -0.59289275    -0.59289275   
     53000   5.3            0.96355887    -0.24137017     0.015351813   -0.59250945    -0.59250945    -0.59250945   
     53100   5.31           0.97420794    -0.19542513     0.0065769671  -0.5928851     -0.5928851     -0.5928851    
     53200   5.32           0.98160704    -0.15219567     0.0049707154  -0.59261796    -0.59261796    -0.59261796   
     53300   5.33           0.98603264    -0.11785597     0.011817024   -0.59172981    -0.59172981    -0.59172981   
     53400   5.34           0.98977763    -0.071220345    0.018618404   -0.59094433    -0.59094433    -0.59094433   
     53500   5.35           0.99145908    -0.031894138    0.00052038277 -0.5896756     -0.5896756     -0.5896756    
     53600   5.36           0.99282736     0.006945348   -0.0009830113  -0.59073077    -0.59073077    -0.59073077   
     53700   5.37           0.99130755     0.054774182    0.0011025593  -0.59046196    -0.59046196    -0.59046196   
     53800   5.38           0.98826234     0.099005031   -0.015767185   -0.59041642    -0.59041642    -0.59041642   
     53900   5.39           0.984557       0.13682606    -0.012660011   -0.59150907    -0.59150907    -0.59150907   
     54000   5.4            0.97725489     0.18479812    -0.0065629549  -0.59236982    -0.59236982    -0.59236982   
     54100   5.41           0.97003488     0.21788694    -0.0057019334  -0.59151988    -0.59151988    -0.59151988   
     54200   5.42           0.96166433     0.25250873    -0.0022994373  -0.59163919    -0.59163919    -0.59163919   
     54300   5.43           0.95070862     0.29157517    -0.0062962361  -0.59179981    -0.59179981    -0.59179981   
     54400   5.44           0.94189096     0.32025127    -0.0050304104  -0.5923318     -0.5923318     -0.5923318    
     54500   5.45           0.92576958     0.36156818     0.0056505819  -0.59121494    -0.59121494    -0.59121494   
     54600   5.46           0.90741249     0.40393884     0.014107088   -0.59099648    -0.59099648    -0.59099648   
     54700   5.47           0.88353839     0.45391986     0.029101509   -0.59181577    -0.59181577    -0.59181577   
     54800   5.48           0.86161559     0.49421716     0.036543728   -0.59208925    -0.59208925    -0.59208925   
     54900   5.49           0.83886291     0.53208301     0.034071408   -0.59130401    -0.59130401    -0.59130401   
     55000   5.5            0.81221806     0.5738572      0.038316719   -0.59320389    -0.59320389    -0.59320389   
     55100   5.51           0.78455607     0.60984431     0.042813      -0.59232901    -0.59232901    -0.59232901   
     55200   5.52           0.75295879     0.64997241     0.039523401   -0.59329581    -0.59329581    -0.59329581   
     55300   5.53           0.72761164     0.67829829     0.046976465   -0.59404299    -0.59404299    -0.59404299   
     55400   5.54           0.6953701      0.7104835      0.049880529   -0.59361425    -0.59361425    -0.59361425   
     55500   5.55           0.65744558     0.74686451     0.042282361   -0.59432241    -0.59432241    -0.59432241   
     55600   5.56           0.62916842     0.77222323     0.044716927   -0.59602931    -0.59602931    -0.59602931   
     55700   5.57           0.59759427     0.79682311     0.051163477   -0.59664537    -0.59664537    -0.59664537   
     55800   5.58           0.56187395     0.82114971     0.066686124   -0.59679618    -0.59679618    -0.59679618   
     55900   5.59           0.52549481     0.84622158     0.057996997   -0.59797731    -0.59797731    -0.59797731   
     56000   5.6            0.49302393     0.86601907     0.055481972   -0.59860366    -0.59860366    -0.59860366   
     56100   5.61           0.45596527     0.88634077     0.05820314    -0.59899205    -0.59899205    -0.59899205   
     56200   5.62           0.40115525     0.912939       0.056449659   -0.59940655    -0.59940655    -0.59940655   
     56300   5.63           0.35867876     0.92885747     0.066362052   -0.59874362    -0.59874362    -0.59874362   
     56400   5.64           0.31560256     0.94367982     0.07141658    -0.59840996    -0.59840996    -0.59840996   
     56500   5.65           0.26707068     0.95834466     0.069860115   -0.59767871    -0.59767871    -0.59767871   
     56600   5.66           0.21928787     0.97031571     0.070934359   -0.59775304    -0.59775304    -0.59775304   
     56700   5.67           0.1654893      0.98079322     0.060347381   -0.59597084    -0.59597084    -0.59597084   
     56800   5.68           0.12338363     0.98780147     0.052598394   -0.59577432    -0.59577432    -0.59577432   
     56900   5.69           0.083143081    0.99175097     0.047983099   -0.59508685    -0.59508685    -0.59508685   
     57000   5.7            0.034091164    0.99385297     0.050724633   -0.59400162    -0.59400162    -0.59400162   
     57100   5.71          -0.0052015064   0.99446605     0.048369213   -0.59354885    -0.59354885    -0.59354885   
     57200   5.72          -0.047910678    0.99346271     0.049848025   -0.59470058    -0.59470058    -0.59470058   
     57300   5.73          -0.090247498    0.99050754     0.05918707    -0.5957165     -0.5957165     -0.5957165    
     57400   5.74          -0.13644815     0.98460218     0.065198304   -0.59565871    -0.59565871    -0.59565871   
     57500   5.75          -0.1752387      0.97864474     0.060895797   -0.59525915    -0.59525915    -0.59525915   
     57600   5.76          -0.23023514     0.96651157     0.063591378   -0.59452463    -0.59452463    -0.59452463   
     57700   5.77          -0.28061679     0.95251189     0.061637879   -0.59360205    -0.59360205    -0.59360205   
     57800   5.78          -0.3261484      0.93890055     0.055170472   -0.59433766    -0.59433766    -0.59433766   
     57900   5.79          -0.36391458     0.92521279     0.056900334   -0.59520989    -0.59520989    -0.59520989   
     58000   5.8           -0.40125866     0.91120298     0.053785283   -0.5969904     -0.5969904     -0.5969904    
     58100   5.81          -0.44703066     0.88904692     0.064264017   -0.59803566    -0.59803566    -0.59803566   
     58200   5.82          -0.48639227     0.86728969     0.064192644   -0.5970325     -0.5970325     -0.5970325    
     58300   5.83          -0.52071978     0.84745219     0.060021161   -0.59714061    -0.59714061    -0.59714061   
     58400   5.84          -0.56192381     0.82017723     0.05859009    -0.59644564    -0.59644564    -0.59644564   
     58500   5.85          -0.59524946     0.79629164     0.052644316   -0.59627409    -0.59627409    -0.59627409   
     58600   5.86          -0.62725199     0.77099308     0.055127904   -0.59648726    -0.59648726    -0.59648726   
     58700   5.87          -0.66095224     0.74254947     0.058093866   -0.59721349    -0.59721349    -0.59721349   
     58800   5.88          -0.69284119     0.71296347     0.054103562   -0.5966823     -0.5966823     -0.5966823    
     58900   5.89          -0.71626362     0.69020988     0.05683968    -0.59761853    -0.59761853    -0.59761853   
     59000   5.9           -0.74047923     0.66496951     0.052453462   -0.59769301    -0.59769301    -0.59769301   
     59100   5.91          -0.77212091     0.62751346     0.055578344   -0.59769181    -0.59769181    -0.59769181   
     59200   5.92          -0.79588462     0.59563353     0.058217035   -0.59732723    -0.59732723    -0.59732723   
     59300   5.93          -0.81611835     0.56558811     0.062336862   -0.59681127    -0.59681127    -0.59681127   
     59400   5.94          -0.83880623     0.52944418     0.069377318   -0.59673347    -0.59673347    -0.59673347   
     59500   5.95          -0.86319281     0.4888168      0.075241028   -0.59720353    -0.59720353    -0.59720353   
     59600   5.96          -0.88824676     0.44184281     0.080063324   -0.59793689    -0.59793689    -0.59793689   
     59700   5.97          -0.91094664     0.39085652     0.085285555   -0.5976106     -0.5976106     -0.5976106    
     59800   5.98          -0.92470477     0.35735618     0.085254887   -0.59770999    -0.59770999    -0.59770999   
     59900   5.99          -0.94175723     0.31056801     0.087362942   -0.59817227    -0.59817227    -0.59817227   
     60000   6             -0.95510962     0.26571149     0.086969828   -0.597768      -0.597768      -0.597768     
     60100   6.01          -0.96844608     0.21446342     0.087708538   -0.59837509    -0.59837509    -0.59837509   
     60200   6.02          -0.97775662     0.16681011     0.088574702   -0.59842137    -0.59842137    -0.59842137   
     60300   6.03          -0.98562083     0.10781539     0.097919996   -0.59870443    -0.59870443    -0.59870443   
     60400   6.04          -0.98996569     0.063089024    0.098560668   -0.59933664    -0.59933664    -0.59933664   
     60500   6.05          -0.99196296     0.018978909    0.098626072   -0.59941321    -0.59941321    -0.59941321   
     60600   6.06          -0.99148835    -0.029222308    0.098177217   -0.5989102     -0.5989102     -0.5989102    
     60700   6.07          -0.99035191    -0.065860641    0.095378844   -0.59918626    -0.59918626    -0.59918626   
     60800   6.08          -0.98672435    -0.1060555      0.098433161   -0.59934901    -0.59934901    -0.59934901   
     60900   6.09          -0.98241304    -0.14283184     0.095189167   -0.59928749    -0.59928749    -0.59928749   
     61000   6.1           -0.97549411    -0.18361535     0.095359587   -0.59911745    -0.59911745    -0.59911745   
     61100   6.11          -0.9686297     -0.21550691     0.10006184    -0.59917954    -0.59917954    -0.59917954   
     61200   6.12          -0.95454065    -0.27197126     0.10452199    -0.60008016    -0.60008016    -0.60008016   
     61300   6.13          -0.94108834    -0.31176147     0.10839466    -0.59917391    -0.59917391    -0.59917391   
     61400   6.14          -0.92505405    -0.35348547     0.11713131    -0.59952744    -0.59952744    -0.59952744   
     61500   6.15          -0.91032553    -0.38934376     0.11688579    -0.59916844    -0.59916844    -0.59916844   
     61600   6.16          -0.89151064    -0.4290726      0.11432882    -0.59841201    -0.59841201    -0.59841201   
     61700   6.17          -0.87512896    -0.46059468     0.10991198    -0.59702632    -0.59702632    -0.59702632   
     61800   6.18          -0.8528292     -0.50116966     0.10396028    -0.59595676    -0.59595676    -0.59595676   
     61900   6.19          -0.8302128     -0.5386931      0.10604264    -0.59683488    -0.59683488    -0.59683488   
     62000   6.2           -0.80796202    -0.57241742     0.10191295    -0.59689812    -0.59689812    -0.59689812   
     62100   6.21          -0.78429604    -0.60594856     0.10091178    -0.59780592    -0.59780592    -0.59780592   
     62200   6.22          -0.76004596    -0.63488367     0.10823988    -0.59816194    -0.59816194    -0.59816194   
     62300   6.23          -0.73098291    -0.6687921      0.10622798    -0.59813558    -0.59813558    -0.59813558   
     62400   6.24          -0.69165891    -0.70875849     0.11678823    -0.59920377    -0.59920377    -0.59920377   
     62500   6.25          -0.65759046    -0.74044397     0.12100163    -0.59968722    -0.59968722    -0.59968722   
     62600   6.26          -0.62238484    -0.76981087     0.12115135    -0.59965854    -0.59965854    -0.59965854   
     62700   6.27          -0.58864431    -0.79624358     0.12250256    -0.60028438    -0.60028438    -0.60028438   
     62800   6.28          -0.5509441     -0.8221994      0.12938393    -0.60090257    -0.60090257    -0.60090257   
     62900   6.29          -0.51479954    -0.8432984      0.14136187    -0.60097785    -0.60097785    -0.60097785   
     63000   6.3           -0.47685355    -0.86556455     0.14097981    -0.60113626    -0.60113626    -0.60113626   
     63100   6.31          -0.43866673    -0.88522435     0.1413394     -0.60082555    -0.60082555    -0.60082555   
     63200   6.32          -0.39583587    -0.90548793     0.1396354     -0.60039587    -0.60039587    -0.60039587   
     63300   6.33          -0.35437829    -0.92179181     0.14260163    -0.5995096     -0.5995096     -0.5995096    
     63400   6.34          -0.31342439    -0.9355361      0.14561225    -0.59891891    -0.59891891    -0.59891891   
     63500   6.35          -0.27391128    -0.94730541     0.14767614    -0.59893376    -0.59893376    -0.59893376   
     63600   6.36          -0.2353866     -0.95883305     0.13899232    -0.59853844    -0.59853844    -0.59853844   
     63700   6.37          -0.19751317    -0.96814544     0.13285432    -0.59872681    -0.59872681    -0.59872681   
     63800   6.38          -0.15223414    -0.9779185      0.11983062    -0.59832145    -0.59832145    -0.59832145   
     63900   6.39          -0.10592754    -0.98354502     0.12038925    -0.59736404    -0.59736404    -0.59736404   
     64000   6.4           -0.068939553   -0.98467808     0.13446083    -0.59691447    -0.59691447    -0.59691447   
     64100   6.41          -0.025625673   -0.98672708     0.13470468    -0.59671261    -0.59671261    -0.59671261   
     64200   6.42           0.012815182   -0.98590961     0.14531318    -0.5981026     -0.5981026     -0.5981026    
     64300   6.43           0.054478701   -0.98408863     0.14783443    -0.59833271    -0.59833271    -0.59833271   
     64400   6.44           0.10352341    -0.98064354     0.14994958    -0.59934112    -0.59934112    -0.59934112   
     64500   6.45           0.14741965    -0.97465808     0.15092439    -0.59896598    -0.59896598    -0.59896598   
     64600   6.46           0.17799948    -0.96938514     0.15364594    -0.59968771    -0.59968771    -0.59968771   
     64700   6.47           0.215961      -0.9618086      0.15294653    -0.59962118    -0.59962118    -0.59962118   
     64800   6.48           0.25365588    -0.95232939     0.15276614    -0.59955717    -0.59955717    -0.59955717   
     64900   6.49           0.29377359    -0.94203534     0.14763782    -0.60023484    -0.60023484    -0.60023484   
     65000   6.5            0.33784411    -0.9266265      0.14970424    -0.59995769    -0.59995769    -0.59995769   
     65100   6.51           0.37048149    -0.91374298     0.14923883    -0.59947937    -0.59947937    -0.59947937   
     65200   6.52           0.40050921    -0.90169716     0.1439368     -0.59931646    -0.59931646    -0.59931646   
     65300   6.53           0.43021426    -0.88948234     0.13850963    -0.60020372    -0.60020372    -0.60020372   
[...]
    190100   19.01         -0.84023703    -0.062966907    0.53103977    -0.60752383    -0.60752383    -0.60752383   
    190200   19.02         -0.83721516    -0.10957098     0.52797831    -0.6072365     -0.6072365     -0.6072365    
    190300   19.03         -0.83105905    -0.14772429     0.52863661    -0.60766529    -0.60766529    -0.60766529   
    190400   19.04         -0.8237479     -0.18905029     0.52722598    -0.6072405     -0.6072405     -0.6072405    
    190500   19.05         -0.8100406     -0.2248542      0.53344521    -0.60680751    -0.60680751    -0.60680751   
    190600   19.06         -0.80188261    -0.25861723     0.53162417    -0.60732069    -0.60732069    -0.60732069   
    190700   19.07         -0.79064869    -0.29173039     0.52983309    -0.60652074    -0.60652074    -0.60652074   
    190800   19.08         -0.78057746    -0.3287435      0.52394459    -0.60666684    -0.60666684    -0.60666684   
    190900   19.09         -0.76470384    -0.37218281     0.5189452     -0.60707503    -0.60707503    -0.60707503   
    191000   19.1          -0.74578329    -0.40671813     0.51904721    -0.60644244    -0.60644244    -0.60644244   
    191100   19.11         -0.72307804    -0.43577695     0.52717374    -0.60635374    -0.60635374    -0.60635374   
    191200   19.12         -0.69814144    -0.47547387     0.52590855    -0.60634428    -0.60634428    -0.60634428   
    191300   19.13         -0.67687941    -0.51003999     0.5223451     -0.607327      -0.607327      -0.607327     
    191400   19.14         -0.65213764    -0.5347434      0.53003337    -0.60788181    -0.60788181    -0.60788181   
    191500   19.15         -0.62505862    -0.5638725      0.53173864    -0.60694249    -0.60694249    -0.60694249   
    191600   19.16         -0.60484272    -0.58460035     0.53210454    -0.60691082    -0.60691082    -0.60691082   
    191700   19.17         -0.57945524    -0.61183428     0.53075003    -0.60763785    -0.60763785    -0.60763785   
    191800   19.18         -0.54826249    -0.64184524     0.52677626    -0.60661504    -0.60661504    -0.60661504   
    191900   19.19         -0.52113935    -0.67110761     0.51798582    -0.6067956     -0.6067956     -0.6067956    
    192000   19.2          -0.49266488    -0.69575031     0.51310323    -0.60679277    -0.60679277    -0.60679277   
    192100   19.21         -0.46594001    -0.7193564      0.50520278    -0.60645328    -0.60645328    -0.60645328   
    192200   19.22         -0.43214137    -0.74185244     0.5020523     -0.60615236    -0.60615236    -0.60615236   
    192300   19.23         -0.38692895    -0.766544       0.50112679    -0.60587816    -0.60587816    -0.60587816   
    192400   19.24         -0.34948032    -0.78403811     0.50252053    -0.60640674    -0.60640674    -0.60640674   
    192500   19.25         -0.31212997    -0.79564317     0.50793287    -0.60593686    -0.60593686    -0.60593686   
    192600   19.26         -0.28257034    -0.80349001     0.51080507    -0.605243      -0.605243      -0.605243     
    192700   19.27         -0.25547305    -0.80876077     0.51456037    -0.60421314    -0.60421314    -0.60421314   
    192800   19.28         -0.21974409    -0.81396081     0.52093269    -0.60299369    -0.60299369    -0.60299369   
    192900   19.29         -0.18779131    -0.82434401     0.51544752    -0.60154355    -0.60154355    -0.60154355   
    193000   19.3          -0.151367      -0.83014648     0.51794028    -0.60179655    -0.60179655    -0.60179655   
    193100   19.31         -0.11215576    -0.83460782     0.52226142    -0.60301374    -0.60301374    -0.60301374   
    193200   19.32         -0.071215413   -0.84190792     0.51645185    -0.60241012    -0.60241012    -0.60241012   
    193300   19.33         -0.037495549   -0.83856334     0.52583683    -0.60316203    -0.60316203    -0.60316203   
    193400   19.34         -0.012953506   -0.84036929     0.52328544    -0.60268061    -0.60268061    -0.60268061   
    193500   19.35          0.028242148   -0.84229945     0.52036936    -0.60288359    -0.60288359    -0.60288359   
    193600   19.36          0.066275481   -0.84328682     0.51327479    -0.60126588    -0.60126588    -0.60126588   
    193700   19.37          0.10099393    -0.83997862     0.51383203    -0.60179816    -0.60179816    -0.60179816   
    193800   19.38          0.14216031    -0.8275569      0.52191986    -0.60037823    -0.60037823    -0.60037823   
    193900   19.39          0.1912136     -0.82267279     0.51657964    -0.60186674    -0.60186674    -0.60186674   
    194000   19.4           0.21774732    -0.8103972      0.52419069    -0.60138273    -0.60138273    -0.60138273   
    194100   19.41          0.24235965    -0.80335597     0.52349818    -0.60048725    -0.60048725    -0.60048725   
    194200   19.42          0.28360972    -0.79610409     0.51531737    -0.6010387     -0.6010387     -0.6010387    
    194300   19.43          0.32821113    -0.77977056     0.5139714     -0.60079833    -0.60079833    -0.60079833   
    194400   19.44          0.35921697    -0.76446454     0.51881406    -0.60214192    -0.60214192    -0.60214192   
    194500   19.45          0.38955606    -0.74752452     0.52151887    -0.60200393    -0.60200393    -0.60200393   
    194600   19.46          0.4279115     -0.73074099     0.51567651    -0.6021199     -0.6021199     -0.6021199    
    194700   19.47          0.46079555    -0.7076426      0.51941776    -0.60171945    -0.60171945    -0.60171945   
    194800   19.48          0.5007373     -0.68685169     0.51173676    -0.60266723    -0.60266723    -0.60266723   
    194900   19.49          0.52998738    -0.66575393     0.5138012     -0.60456114    -0.60456114    -0.60456114   
    195000   19.5           0.55923089    -0.6407449      0.51467004    -0.60444634    -0.60444634    -0.60444634   
    195100   19.51          0.57912737    -0.62532334     0.51284412    -0.60516108    -0.60516108    -0.60516108   
    195200   19.52          0.60703896    -0.59663443     0.51525224    -0.60590777    -0.60590777    -0.60590777   
    195300   19.53          0.62213769    -0.57736047     0.51982846    -0.60654763    -0.60654763    -0.60654763   
    195400   19.54          0.64737114    -0.54530191     0.5215075     -0.6053142     -0.6053142     -0.6053142    
    195500   19.55          0.66794466    -0.51383417     0.52498481    -0.60385898    -0.60385898    -0.60385898   
    195600   19.56          0.69755694    -0.47844067     0.51950964    -0.60326066    -0.60326066    -0.60326066   
    195700   19.57          0.71770045    -0.45111009     0.51795622    -0.60397503    -0.60397503    -0.60397503   
    195800   19.58          0.72991504    -0.4197784      0.52734196    -0.60431794    -0.60431794    -0.60431794   
    195900   19.59          0.74619317    -0.39239814     0.52588528    -0.60465929    -0.60465929    -0.60465929   
    196000   19.6           0.76265337    -0.36226348     0.524733      -0.60578735    -0.60578735    -0.60578735   
    196100   19.61          0.77662909    -0.32390563     0.53051311    -0.60665214    -0.60665214    -0.60665214   
    196200   19.62          0.79352729    -0.28697154     0.52815939    -0.60767605    -0.60767605    -0.60767605   
    196300   19.63          0.8016277     -0.26189381     0.52825868    -0.60718737    -0.60718737    -0.60718737   
    196400   19.64          0.81274422    -0.23424124     0.5237753     -0.60679139    -0.60679139    -0.60679139   
    196500   19.65          0.82405086    -0.19216049     0.52189901    -0.60607354    -0.60607354    -0.60607354   
    196600   19.66          0.8290415     -0.15313147     0.52521203    -0.60559635    -0.60559635    -0.60559635   
    196700   19.67          0.83026588    -0.11522115     0.53360632    -0.60565364    -0.60565364    -0.60565364   
    196800   19.68          0.83000285    -0.074188089    0.54209482    -0.60650485    -0.60650485    -0.60650485   
    196900   19.69          0.83638121    -0.032331753    0.53814174    -0.60748557    -0.60748557    -0.60748557   
    197000   19.7           0.84381646     0.0016744439   0.52925805    -0.60830709    -0.60830709    -0.60830709   
    197100   19.71          0.84193029     0.040125097    0.5286187     -0.60736028    -0.60736028    -0.60736028   
    197200   19.72          0.8376685      0.079815078    0.53154196    -0.60775928    -0.60775928    -0.60775928   
    197300   19.73          0.83118934     0.12009339     0.53459336    -0.60790774    -0.60790774    -0.60790774   
    197400   19.74          0.81660065     0.168267       0.54440284    -0.60848936    -0.60848936    -0.60848936   
    197500   19.75          0.8039236      0.20427327     0.55118884    -0.60885793    -0.60885793    -0.60885793   
    197600   19.76          0.79061055     0.24292976     0.55420389    -0.6087923     -0.6087923     -0.6087923    
    197700   19.77          0.77916825     0.26785287     0.558103      -0.60821037    -0.60821037    -0.60821037   
    197800   19.78          0.76942984     0.29285143     0.55917779    -0.60823868    -0.60823868    -0.60823868   
    197900   19.79          0.75080495     0.32452584     0.56918905    -0.60969832    -0.60969832    -0.60969832   
    198000   19.8           0.73557213     0.36288639     0.56517395    -0.60940175    -0.60940175    -0.60940175   
    198100   19.81          0.71325923     0.39264949     0.57425471    -0.60933162    -0.60933162    -0.60933162   
    198200   19.82          0.69089481     0.41944929     0.58332934    -0.60996475    -0.60996475    -0.60996475   
    198300   19.83          0.66573755     0.46018341     0.58118613    -0.60933322    -0.60933322    -0.60933322   
    198400   19.84          0.64265397     0.48994534     0.58284861    -0.60936572    -0.60936572    -0.60936572   
    198500   19.85          0.61889972     0.51129206     0.59001607    -0.60899436    -0.60899436    -0.60899436   
    198600   19.86          0.59873711     0.53681591     0.58871053    -0.60944829    -0.60944829    -0.60944829   
    198700   19.87          0.57697913     0.55979876     0.58999507    -0.61038394    -0.61038394    -0.61038394   
    198800   19.88          0.55522598     0.57240464     0.59896111    -0.61092443    -0.61092443    -0.61092443   
    198900   19.89          0.53267728     0.59681938     0.59504135    -0.61049825    -0.61049825    -0.61049825   
    199000   19.9           0.50250381     0.61801075     0.59877328    -0.60964745    -0.60964745    -0.60964745   
    199100   19.91          0.46781409     0.63505927     0.60818367    -0.60922063    -0.60922063    -0.60922063   
    199200   19.92          0.43427913     0.65910975     0.60679214    -0.60881281    -0.60881281    -0.60881281   
    199300   19.93          0.39905392     0.67542792     0.61154725    -0.60802327    -0.60802327    -0.60802327   
    199400   19.94          0.37203954     0.69497826     0.60760604    -0.60860092    -0.60860092    -0.60860092   
    199500   19.95          0.34458698     0.71393491     0.60295766    -0.60970512    -0.60970512    -0.60970512   
    199600   19.96          0.31747858     0.7299668      0.59797578    -0.60908249    -0.60908249    -0.60908249   
    199700   19.97          0.27812899     0.74823775     0.59574321    -0.60971402    -0.60971402    -0.60971402   
    199800   19.98          0.24726426     0.75682734     0.59954777    -0.61027965    -0.61027965    -0.61027965   
    199900   19.99          0.20840418     0.76742645     0.60067716    -0.6101941     -0.6101941     -0.6101941    
    200000   20             0.17545016     0.77344732     0.60360249    -0.61020218    -0.61020218    -0.61020218   
    200100   20.01          0.13707474     0.77587086     0.61029226    -0.61028428    -0.61028428    -0.61028428   
    200200   20.02          0.093180727    0.78983648     0.60073757    -0.60993178    -0.60993178    -0.60993178   
    200300   20.03          0.05914234     0.79080485     0.60335886    -0.60965189    -0.60965189    -0.60965189   
    200400   20.04          0.021494327    0.78966518     0.60684808    -0.6090874     -0.6090874     -0.6090874    
    200500   20.05         -0.012632379    0.78741306     0.61056584    -0.60980689    -0.60980689    -0.60980689   
    200600   20.06         -0.039255031    0.78520349     0.61313704    -0.61046355    -0.61046355    -0.61046355   
    200700   20.07         -0.07538201     0.78700306     0.60803623    -0.61079973    -0.61079973    -0.61079973   
    200800   20.08         -0.10589177     0.77930292     0.61306613    -0.61110789    -0.61110789    -0.61110789   
    200900   20.09         -0.138212       0.77226809     0.6150633     -0.6105393     -0.6105393     -0.6105393    
    201000   20.1          -0.17483755     0.76228614     0.61798718    -0.61058764    -0.61058764    -0.61058764   
    201100   20.11         -0.21055613     0.74993684     0.62224535    -0.61100511    -0.61100511    -0.61100511   
    201200   20.12         -0.24935463     0.74184388     0.61603322    -0.60937429    -0.60937429    -0.60937429   
    201300   20.13         -0.27949956     0.72836885     0.61926088    -0.60922474    -0.60922474    -0.60922474   
    201400   20.14         -0.31396628     0.712256       0.61952507    -0.60762116    -0.60762116    -0.60762116   
    201500   20.15         -0.34258141     0.70017086     0.61708994    -0.60713375    -0.60713375    -0.60713375   
    201600   20.16         -0.36914167     0.68198663     0.62321234    -0.60760226    -0.60760226    -0.60760226   
    201700   20.17         -0.40109296     0.66073513     0.62520907    -0.60644456    -0.60644456    -0.60644456   
    201800   20.18         -0.42896921     0.63972079     0.62964345    -0.60750252    -0.60750252    -0.60750252   
    201900   20.19         -0.45111069     0.62876275     0.62541674    -0.60775041    -0.60775041    -0.60775041   
    202000   20.2          -0.47434805     0.61374724     0.62313609    -0.60745444    -0.60745444    -0.60745444   
    202100   20.21         -0.50526471     0.58582518     0.6233503     -0.60607588    -0.60607588    -0.60607588   
    202200   20.22         -0.53869335     0.56247141     0.61723189    -0.60632648    -0.60632648    -0.60632648   
    202300   20.23         -0.56303766     0.53968209     0.61668589    -0.60650568    -0.60650568    -0.60650568   
    202400   20.24         -0.59128713     0.50923973     0.61426206    -0.60547772    -0.60547772    -0.60547772   
    202500   20.25         -0.61558517     0.48093345     0.61317245    -0.60557302    -0.60557302    -0.60557302   
    202600   20.26         -0.63785444     0.45119763     0.6131779     -0.60624431    -0.60624431    -0.60624431   
    202700   20.27         -0.66092484     0.41904379     0.61209031    -0.60650254    -0.60650254    -0.60650254   
    202800   20.28         -0.67821069     0.39737713     0.60799052    -0.60705049    -0.60705049    -0.60705049   
    202900   20.29         -0.70119874     0.35772202     0.60668179    -0.60789884    -0.60789884    -0.60789884   
    203000   20.3          -0.71653291     0.32041715     0.61078092    -0.60848665    -0.60848665    -0.60848665   
    203100   20.31         -0.72829968     0.29323835     0.60952719    -0.60783493    -0.60783493    -0.60783493   
    203200   20.32         -0.74103619     0.26017663     0.60838281    -0.6072871     -0.6072871     -0.6072871    
    203300   20.33         -0.7618168      0.22210992     0.59916463    -0.60835496    -0.60835496    -0.60835496   
    203400   20.34         -0.76661502     0.19242837     0.60344554    -0.6079396     -0.6079396     -0.6079396    
    203500   20.35         -0.77136428     0.15577134     0.60724036    -0.60732843    -0.60732843    -0.60732843   
    203600   20.36         -0.77682214     0.1213978      0.60696159    -0.60642419    -0.60642419    -0.60642419   
    203700   20.37         -0.78635963     0.091745772    0.6006632     -0.60700305    -0.60700305    -0.60700305   
    203800   20.38         -0.78527917     0.052111475    0.60624022    -0.60656921    -0.60656921    -0.60656921   
    203900   20.39         -0.78552769     0.020151426    0.60965888    -0.6079941     -0.6079941     -0.6079941    
    204000   20.4          -0.78939989    -0.0084840924   0.60549187    -0.60864057    -0.60864057    -0.60864057   
    204100   20.41         -0.79029969    -0.039810759    0.603347      -0.60883038    -0.60883038    -0.60883038   
    204200   20.42         -0.78445715    -0.086291679    0.60661436    -0.60872377    -0.60872377    -0.60872377   
    204300   20.43         -0.78233585    -0.11794634     0.60326656    -0.60805755    -0.60805755    -0.60805755   
    204400   20.44         -0.77484869    -0.15721783     0.60344117    -0.60729765    -0.60729765    -0.60729765   
    204500   20.45         -0.76824901    -0.19604081     0.59858812    -0.6057016     -0.6057016     -0.6057016    
    204600   20.46         -0.75799332    -0.22805822     0.5987426     -0.6042196     -0.6042196     -0.6042196    
    204700   20.47         -0.75036005    -0.26022617     0.59462623    -0.60374752    -0.60374752    -0.60374752   
    204800   20.48         -0.74612898    -0.2942681      0.58539958    -0.60483808    -0.60483808    -0.60483808   
    204900   20.49         -0.73936047    -0.3233427      0.57997697    -0.60568777    -0.60568777    -0.60568777   
    205000   20.5          -0.72011802    -0.35598366     0.58524071    -0.60536618    -0.60536618    -0.60536618   
    205100   20.51         -0.70858017    -0.37968968     0.58563411    -0.60617683    -0.60617683    -0.60617683   
    205200   20.52         -0.68935016    -0.40710817     0.59017652    -0.6066615     -0.6066615     -0.6066615    
    205300   20.53         -0.66901775    -0.43912914     0.59115831    -0.60760204    -0.60760204    -0.60760204   
    205400   20.54         -0.65331643    -0.46558821     0.58887422    -0.60742084    -0.60742084    -0.60742084   
    205500   20.55         -0.63008049    -0.49817851     0.58724851    -0.60708154    -0.60708154    -0.60708154   
    205600   20.56         -0.60342301    -0.53104565     0.58757798    -0.60804308    -0.60804308    -0.60804308   
    205700   20.57         -0.57127008    -0.56184216     0.59197963    -0.60888423    -0.60888423    -0.60888423   
    205800   20.58         -0.54563122    -0.58872591     0.59114863    -0.60973107    -0.60973107    -0.60973107   
    205900   20.59         -0.52223688    -0.60881906     0.59076551    -0.60832239    -0.60832239    -0.60832239   
    206000   20.6          -0.49588948    -0.62446015     0.59799639    -0.60920436    -0.60920436    -0.60920436   
    206100   20.61         -0.46789998    -0.64874412     0.59386625    -0.60833565    -0.60833565    -0.60833565   
    206200   20.62         -0.4467554     -0.66474953     0.59109828    -0.60727819    -0.60727819    -0.60727819   
    206300   20.63         -0.41308563    -0.6806055      0.59710365    -0.60712268    -0.60712268    -0.60712268   
    206400   20.64         -0.37774607    -0.69547569     0.60440467    -0.60829379    -0.60829379    -0.60829379   
    206500   20.65         -0.34769598    -0.70835622     0.60786675    -0.6088546     -0.6088546     -0.6088546    
    206600   20.66         -0.32115363    -0.71997955     0.60890335    -0.60908003    -0.60908003    -0.60908003   
    206700   20.67         -0.29561328    -0.72874837     0.61075879    -0.60811756    -0.60811756    -0.60811756   
    206800   20.68         -0.25598717    -0.74155569     0.61187434    -0.60724013    -0.60724013    -0.60724013   
    206900   20.69         -0.2226914     -0.74866492     0.6167425     -0.60799875    -0.60799875    -0.60799875   
    207000   20.7          -0.19153732    -0.7623438      0.61029137    -0.60763488    -0.60763488    -0.60763488   
    207100   20.71         -0.1721794    